18
gdb 12000	3.30379	2.00995	1.77155	1.1429	72.34	-0.2328	0.0128	0.2455	838.8866	0.153685	-347.800444	-347.79292	-347.791976	-347.831525	30.055	
C	-0.1485889857	 1.5859822051	 0.0080760782	-0.427339
C	 0.022899178	 0.0627677166	-0.0070221523	 0.349668
O	-1.2723038397	-0.5607168062	 0.0331290758	-0.473388
C	 0.8431653612	-0.4466545175	-1.1841524642	-0.14834
C	 1.8094639572	-1.2853676238	-0.8034445376	-0.07816
C	 1.8723227203	-1.417731729	 0.6797251405	-0.083451
C	 2.2190860199	-0.1318147734	 1.4114491902	-0.293422
C	 0.7784143929	-0.5060946709	 1.1969417505	-0.045589
H	 0.8144914679	 2.102134758	 0.0467859548	 0.117974
H	-0.6701158277	 1.9223239427	-0.8964986103	 0.100234
H	-0.7452356754	 1.8857128136	 0.8742830191	 0.123163
H	-1.7422105577	-0.3113085107	-0.7699251483	 0.271387
H	 0.6426717383	-0.1292667563	-2.202760448	 0.084856
H	 2.5064520817	-1.7848163971	-1.4677742316	 0.09752
H	 2.1111609382	-2.3695252676	 1.1401659294	 0.088265
H	 2.599166316	-0.2158340869	 2.4247787092	 0.109862
H	 2.6568915995	 0.6735052433	 0.830706882	 0.111694
H	 0.1731678951	-0.7792414998	 2.0525208127	 0.095067
161.884	214.1893	227.5942	231.2811	361.2892	375.1356	399.2195	426.9383	600.9363	609.8724	727.8641	773.7275	783.8666	812.4825	861.5362	901.9957	934.7046	952.2099	978.6896	1003.668	1028.4598	1071.4702	1075.1994	1095.4888	1103.3885	1136.073	1151.6503	1183.983	1209.0185	1295.0407	1357.3531	1367.4184	1393.4791	1406.4555	1476.215	1491.3082	1492.7815	1663.6294	3027.779	3095.2459	3121.3573	3123.6432	3170.069	3175.2013	3189.8606	3200.0906	3211.9689	3807.258
CC1(O)C=CC2CC12	C[C@@]1(O)C=C[C@H]2C[C@@H]12	
InChI=1S/C7H10O/c1-7(8)3-2-5-4-6(5)7/h2-3,5-6,8H,4H2,1H3	InChI=1S/C7H10O/c1-7(8)3-2-5-4-6(5)7/h2-3,5-6,8H,4H2,1H3/t5-,6+,7+/m0/s1
