16
gdb 50000	3.73923	1.20079	1.12772	3.5622	70.8	-0.2443	-0.0385	0.2058	1101.3663	0.12301	-437.813461	-437.805731	-437.804787	-437.846069	28.958	
O	-0.2845626569	 0.5056320988	-0.6800103474	-0.256903
C	 0.1771899515	 1.1458620697	 0.2298834078	 0.15421
C	 1.3878592304	 2.015393324	 0.117175157	-0.16558
O	 2.285234897	 1.736215426	-0.9716557057	-0.267981
C	 1.5262841491	 2.9086458076	-1.0561032902	 0.500887
C	 0.579518252	 3.2023765924	-2.2405508112	-0.308401
C	 1.2164293562	 4.6019090426	-2.2997111944	-0.044127
N	 0.975528861	 5.2219427658	-0.9774384745	-0.333366
C	 2.1286978902	 4.2958685732	-1.1579352972	-0.175005
H	-0.2964344321	 1.1597772783	 1.2369779227	 0.08208
H	 1.865013956	 2.3034910222	 1.0534709261	 0.107658
H	 0.8378391892	 2.5694420169	-3.092013676	 0.132225
H	-0.4946708274	 3.1659950074	-2.054359929	 0.124743
H	 1.4005829589	 5.2053333774	-3.1788844812	 0.105654
H	 1.3556474676	 6.1682744072	-1.0109757031	 0.234945
H	 3.1479229571	 4.5969472906	-0.9525082237	 0.10896
89.0345	114.1703	160.5506	236.4787	299.5152	392.4576	428.5705	495.9021	574.7191	745.7168	764.7649	822.5873	832.6082	855.1934	890.8635	903.3146	945.2408	961.7018	988.8386	1029.9862	1055.4139	1071.8688	1094.4099	1120.2446	1145.4315	1167.5325	1217.6008	1293.1587	1307.873	1328.5303	1364.7457	1421.3145	1454.866	1487.4587	1824.3123	2883.1542	3083.1337	3122.4615	3144.6045	3197.4295	3209.8123	3467.5997
O=CC1OC11CC2NC12	O=C[C@H]1O[C@]21C[C@H]1N[C@@H]21	
InChI=1S/C6H7NO2/c8-2-4-6(9-4)1-3-5(6)7-3/h2-5,7H,1H2	InChI=1S/C6H7NO2/c8-2-4-6(9-4)1-3-5(6)7-3/h2-5,7H,1H2/t3-,4-,5-,6+/m1/s1
