19
gdb 97600	4.21954	0.60179	0.54062	2.4699	88.28	-0.2497	0.03	0.2797	2038.8799	0.155436	-385.828433	-385.817427	-385.816483	-385.86633	38.303	
C	 0.0152463875	 1.5379482132	 0.1302307079	-0.365185
C	-0.0168544621	 0.0123664971	-0.076810774	-0.316377
C	-1.3681286911	-0.5382450133	-0.0487159806	 0.104914
C	-2.4930296371	-0.9712504447	-0.0429519099	 0.023313
C	-3.8469326392	-1.5283993576	 0.0228791063	-0.058246
O	-3.8398972579	-2.945232297	 0.1145787381	-0.406309
C	-4.639991465	-0.8776723174	 1.1912476833	-0.361192
C	-6.0249746325	-1.3217855716	 1.2514721682	 0.312375
C	-7.1714609698	-1.679654207	 1.284994862	-0.444552
H	 1.045716228	 1.9036246279	 0.1003333376	 0.117772
H	-0.5545342584	 2.0478516685	-0.6511227183	 0.130861
H	-0.4192498084	 1.8088340127	 1.096255898	 0.128277
H	 0.4575242348	-0.2388148789	-1.0339491811	 0.134161
H	 0.589318848	-0.4753530737	 0.6972862092	 0.130576
H	-4.3833947107	-1.3117559429	-0.907862068	 0.126121
H	-3.2196304876	-3.1877646326	 0.8111936569	 0.283318
H	-4.1217231594	-1.110173093	 2.1303192774	 0.126934
H	-4.595682514	 0.2119492586	 1.0758488471	 0.13848
H	-8.1826168652	-2.0012801281	 1.31962232	 0.19476
22.2937	55.3584	68.3662	126.2613	158.6974	194.8645	226.1646	281.502	315.0722	346.0181	373.8102	433.1187	519.0855	541.4002	560.8569	617.6034	643.8423	778.9095	787.3394	860.339	957.8366	970.1826	1017.7745	1066.7485	1082.3384	1105.4756	1154.3999	1199.1315	1272.1942	1285.9733	1310.6446	1349.716	1355.4918	1409.4071	1423.8642	1462.1126	1476.1293	1495.1565	1505.6558	2241.8678	2359.3304	3022.3543	3024.9164	3046.0027	3048.5673	3050.1485	3067.2974	3120.0283	3125.1016	3507.8035	3804.0217
CCC#CC(O)CC#C	CCC#C[C@@H](O)CC#C	
InChI=1S/C8H10O/c1-3-5-7-8(9)6-4-2/h2,8-9H,3,6H2,1H3	InChI=1S/C8H10O/c1-3-5-7-8(9)6-4-2/h2,8-9H,3,6H2,1H3/t8-/m0/s1
