22
gdb 39500	2.27147	1.71146	1.16556	1.4574	81.78	-0.2184	0.0811	0.2995	1127.8719	0.197192	-404.306611	-404.29853	-404.297586	-404.338944	32.489	
C	 0.1151968389	 1.5143798774	 0.006337333	-0.256666
C	 1.3374665855	 0.6504391935	 0.0320659824	-0.020574
C	 2.2406060754	 0.7182825504	 1.2488407687	-0.089007
O	 2.9251677765	-0.4811183535	 1.5591044	-0.255328
C	 2.1185451139	-1.639821384	 1.6836026586	-0.062341
C	 1.0124476781	-1.5872043606	 2.745634223	-0.207143
C	-0.2090342068	-0.6784011653	 2.4736881015	-0.218769
C	-0.7082983242	-0.6819726915	 1.0177563411	-0.143623
N	-0.0049649697	 0.074363506	-0.0213189522	-0.073402
H	-0.114433321	 2.0468263587	 0.9310844981	 0.102163
H	-0.1850045567	 2.0416471625	-0.8970791372	 0.111701
H	 1.8890061218	 0.5024411177	-0.8966933446	 0.095099
H	 3.0301425136	 1.4476285654	 1.0335260452	 0.109714
H	 1.692181069	 1.0941163265	 2.1211205068	 0.087297
H	 1.6865268602	-1.9141789094	 0.7094295031	 0.101795
H	 2.8219262999	-2.4339232516	 1.9543700017	 0.104155
H	 0.6489141309	-2.6193187545	 2.8418659348	 0.10032
H	 1.4588528328	-1.3288853029	 3.7132211733	 0.103822
H	-1.0374086105	-1.0411733203	 3.0951890294	 0.096332
H	-0.0289977623	 0.3468753118	 2.8098865456	 0.103604
H	-0.7503688666	-1.7244102722	 0.6735970353	 0.105233
H	-1.7417400088	-0.317849214	 0.9965494125	 0.105619
91.37	216.9129	235.295	255.9146	282.8356	344.3438	380.2446	407.241	497.8967	527.8675	607.3507	683.6343	766.5035	804.069	824.1023	883.978	894.9602	960.0424	971.1036	1015.3775	1028.0449	1061.0394	1083.7185	1106.7918	1117.3485	1130.9844	1147.1272	1151.0447	1181.9805	1218.9588	1257.5784	1292.9437	1318.4211	1334.6678	1357.7019	1369.1857	1377.5939	1387.1645	1400.4324	1422.3629	1436.9831	1470.9399	1485.7109	1490.2665	1509.7712	1512.0347	1520.5801	2996.4762	3011.3957	3013.8357	3021.6139	3031.6252	3057.2272	3060.1301	3060.4057	3068.7353	3073.6495	3085.5061	3102.2285	3152.0614
C1C2COCCCCN12	C1[C@H]2COCCCCN12	
InChI=1S/C7H13NO/c1-2-4-9-6-7-5-8(7)3-1/h7H,1-6H2	InChI=1S/C7H13NO/c1-2-4-9-6-7-5-8(7)3-1/h7H,1-6H2/t7-,8?/m0/s1
