15
gdb 25500	4.50994	0.99013	0.87726	4.226	74.89	-0.2493	-0.0494	0.1999	1276.586	0.113658	-416.870824	-416.863182	-416.862238	-416.904321	27.222	
O	-0.3175804977	 0.0490471624	 0.1726929778	-0.232177
C	-0.0486030348	 1.2076326628	 0.002247661	 0.159477
C	 1.3560118445	 1.7191419694	-0.3045205982	-0.354766
C	 1.3498757857	 2.8203917801	-1.3324190082	 0.327311
N	 1.9820366323	 2.5889879532	-2.4880166825	-0.270334
C	 1.9567669107	 3.5767301446	-3.3851858794	 0.010895
C	 1.3035093945	 4.780735998	-3.152549049	-0.131854
C	 0.6676521635	 4.9067349498	-1.9232889257	 0.010431
N	 0.6873458218	 3.9387766945	-1.0064202583	-0.273697
H	-0.8156510081	 2.0081999479	 0.0739602228	 0.099408
H	 1.7403403621	 2.1273448241	 0.6406049937	 0.147892
H	 1.9877810615	 0.8892463108	-0.6200699008	 0.143321
H	 2.4778139546	 3.3910430704	-4.3218284506	 0.124198
H	 1.2885596014	 5.575355047	-3.8882981672	 0.116285
H	 0.127136078	 5.8130963252	-1.6592746955	 0.123611
44.2876	77.7991	134.6308	244.9646	369.4511	412.5534	433.1911	513.5025	632.4151	644.3028	756.8318	819.1703	833.8628	874.8032	1005.8514	1008.0316	1012.1682	1025.3382	1049.2447	1096.354	1123.4523	1184.251	1248.3647	1254.817	1305.8019	1334.6992	1411.4765	1439.2157	1459.9102	1469.8379	1601.4138	1618.0581	1837.9173	2910.1797	3027.9591	3147.7613	3155.6305	3157.6557	3212.8483
O=CCC1=NC=CC=N1	O=CCc1ncccn1	
InChI=1S/C6H6N2O/c9-5-2-6-7-3-1-4-8-6/h1,3-5H,2H2	InChI=1S/C6H6N2O/c9-5-2-6-7-3-1-4-8-6/h1,3-5H,2H2
