20
gdb 13700	4.97296	0.85306	0.77595	0.1559	86.38	-0.2241	0.0539	0.2781	1548.1709	0.175821	-311.842462	-311.832947	-311.832002	-311.877843	33.913	
C	 0.0049067856	 1.6203934813	-0.043963788	-0.361748
C	 0.00710246	 0.0822621624	 0.0303941765	-0.313724
C	-1.3349214867	-0.4919226998	 0.0350128521	 0.063278
C	-2.4553496145	-0.9391651031	 0.0334601996	 0.076108
C	-3.7893999987	-1.4674028189	 0.0465065534	-0.185341
C	-4.3696053301	-2.1366145954	-1.1938002247	-0.287496
C	-4.0498541368	-2.9716191906	 0.0121400913	 0.017857
C	-2.9095375749	-3.9617226537	-0.0056536341	-0.405171
H	 1.0294095741	 2.0049475004	-0.0449345159	 0.111342
H	-0.4943336647	 1.9643089187	-0.9539202817	 0.12677
H	-0.5234059489	 2.0494492855	 0.8118433702	 0.126549
H	 0.572995733	-0.3217299554	-0.8193217877	 0.124884
H	 0.5495344376	-0.2377932614	 0.9298921783	 0.124481
H	-4.4958985057	-0.8899014181	 0.6366241157	 0.1036
H	-5.4062312659	-1.931350236	-1.4374586226	 0.112125
H	-3.7110443718	-2.2192726647	-2.0514974697	 0.119959
H	-4.9061129524	-3.2804383795	 0.6062292295	 0.086742
H	-2.0578729768	-3.5691715233	-0.5678541675	 0.127653
H	-2.5613813488	-4.1827158572	 1.0091288141	 0.118524
H	-3.2194081435	-4.9052029612	-0.4682727387	 0.11361
25.9308	79.9044	118.2078	152.4756	197.8075	227.9501	312.6118	314.765	371.1138	487.5159	512.3013	560.8697	697.8376	763.8424	786.8098	846.9705	871.4179	925.8508	951.5826	1002.0811	1065.0888	1066.6845	1084.0952	1102.9898	1105.8084	1145.092	1180.7398	1199.9959	1242.9403	1285.8391	1349.0098	1380.4712	1404.6697	1408.169	1423.9401	1477.4917	1483.2299	1493.5421	1493.9924	1502.2918	1506.0265	2358.1138	3014.1539	3032.5757	3039.9692	3042.7597	3092.2898	3112.548	3115.3913	3122.5324	3133.3089	3134.7713	3145.165	3222.9785
CCC#CC1CC1C	CCC#C[C@H]1C[C@H]1C	
InChI=1S/C8H12/c1-3-4-5-8-6-7(8)2/h7-8H,3,6H2,1-2H3	InChI=1S/C8H12/c1-3-4-5-8-6-7(8)2/h7-8H,3,6H2,1-2H3/t7-,8+/m1/s1
