16
gdb 108800	3.26312	1.15934	0.89857	1.3064	66.51	-0.2807	-0.0307	0.25	1253.6043	0.12318	-475.075728	-475.066922	-475.065977	-475.109689	31.108	
C	-0.0324483566	 1.5322824167	-0.0622884646	-0.389151
C	 0.0352274571	 0.0030248126	-0.0976590467	-0.125372
N	 0.8376012579	-0.5165372533	-1.2059767614	-0.324923
C	 1.7461564538	-1.231404414	-0.6819118543	 0.386345
C	 2.8025165503	-1.9621593777	-1.4471888694	-0.131559
O	 2.6764654979	-1.7483587139	-2.8258672157	-0.417508
O	 1.7709069351	-1.3513037535	 0.6854206711	-0.231935
C	 0.6990354737	-0.5795492636	 1.1521502418	 0.418637
O	 0.4522412627	-0.462427175	 2.3082079196	-0.308891
H	 0.9711770734	 1.9638995285	-0.0180601432	 0.134173
H	-0.5284415977	 1.9019363774	-0.9621622438	 0.14046
H	-0.5929577468	 1.8571497193	 0.8177520081	 0.146834
H	-0.982676464	-0.4013818385	-0.1642323502	 0.13865
H	 3.7869213658	-1.6293097433	-1.0828506092	 0.131352
H	 2.727650482	-3.0332907659	-1.2015737222	 0.131097
H	 1.9058655853	-1.1763384359	-2.9498029498	 0.30179
75.934	119.6448	147.1256	182.4495	211.7927	235.6698	256.3395	387.4063	405.3242	534.0036	614.7518	666.6433	710.9776	737.4978	808.0665	913.532	952.7753	1018.9609	1037.8878	1098.3332	1115.296	1133.7991	1156.4978	1241.8982	1245.2586	1292.8454	1310.1656	1343.1816	1404.0208	1475.3454	1487.5265	1496.5305	1500.6426	1732.4091	1925.819	2988.6908	3006.117	3038.2432	3053.1283	3130.7117	3140.9542	3735.6922
CC1N=C(CO)OC1=O	C[C@H]1N=C(CO)OC1=O	
InChI=1S/C5H7NO3/c1-3-5(8)9-4(2-7)6-3/h3,7H,2H2,1H3	InChI=1S/C5H7NO3/c1-3-5(8)9-4(2-7)6-3/h3,7H,2H2,1H3/t3-/m1/s1
