11
gdb 21400	4.11648	2.06057	1.37319	0.4344	59.88	-0.2686	-0.1032	0.1654	801.4266	0.072382	-426.85905	-426.852461	-426.851517	-426.890329	23.888	
N	-0.0360611573	 1.2566295005	 0.4380834755	-0.552471
C	-0.0116681637	 0.0919496693	-0.0452400583	 0.501611
N	-1.1735788432	-0.5600043635	-0.4052392988	-0.365806
C	-1.2352428429	-1.8203032091	-0.9345991741	 0.478006
N	-2.3252441484	-2.3824055955	-1.2514991553	-0.508036
N	 0.0297494083	-2.4760667908	-1.1114211268	-0.126722
N	 1.1027500444	-1.9790530244	-0.8229000848	 0.065083
O	 1.1369842282	-0.6186770369	-0.2539026985	-0.281649
H	 0.9026003216	 1.5881489938	 0.6475830953	 0.244356
H	-2.037119359	-0.0557838067	-0.2608448205	 0.293593
H	-2.138484478	-3.3117150767	-1.6241964937	 0.252034
79.9308	102.2874	332.644	380.9658	447.022	511.0856	564.2991	603.2372	670.7777	701.8938	741.7353	783.6199	804.4357	872.5255	921.7512	976.4514	1088.2141	1146.2719	1325.0576	1405.3541	1414.5988	1670.1926	1761.6748	1783.2583	3522.4855	3539.2097	3621.1219
N=C1NC(=N)N=NO1	[NH][C@H]1NC(=N[N]O1)[NH]	
InChI=1S/C2H3N5O/c3-1-5-2(4)8-7-6-1/h(H3,3,4,5)	InChI=1S/C2H4N5O/c3-1-5-2(4)8-7-6-1/h2,4H,(H2,3,5)/t2-/m0/s1
