23
gdb 108100	3.26	1.31512	1.27648	0.0456	87.99	-0.2493	0.0905	0.3399	1150.826	0.209146	-351.181018	-351.173195	-351.172251	-351.213164	32.352	
C	 0.0854992332	 1.4839860054	 0.3023352651	-0.376626
C	-0.0636641655	 0.0258651936	-0.152464632	-0.298736
C	-1.482434318	-0.4849980873	-0.1133206978	 0.388599
C	-2.6062887838	 0.1142445435	-0.9630379924	-0.275305
C	-3.7429891654	-0.8191659506	-0.4854071849	-0.046667
C	-3.1179327871	-2.2152394886	-0.7198997576	-0.22315
C	-1.8185488371	-1.960516357	 0.036401707	-0.115015
C	-2.1460122244	-0.9886640079	 1.1601850841	-0.095281
C	-3.6355204585	-0.6786969277	 1.0527462601	-0.221751
H	 1.1337972976	 1.7980093241	 0.2791802268	 0.107963
H	-0.477872283	 2.1644626008	-0.3444750574	 0.116235
H	-0.2838515283	 1.6170175888	 1.3247273009	 0.115331
H	 0.3335970875	-0.0780170893	-1.1718718186	 0.092216
H	 0.5632794483	-0.6152710829	 0.4804181831	 0.091872
H	-2.8048695786	 1.1667378761	-0.7326812302	 0.089665
H	-2.4121889448	 0.0280643944	-2.0385802739	 0.086678
H	-4.7275450729	-0.6483969161	-0.92023905	 0.057824
H	-3.7158021247	-3.0246135445	-0.2866178403	 0.090387
H	-2.9607884795	-2.432403146	-1.782138568	 0.08974
H	-1.040551187	-2.7066057188	 0.1387740006	 0.072961
H	-1.615586322	-1.0109464298	 2.1039104081	 0.07308
H	-3.8912181213	 0.3272422632	 1.4030306139	 0.090013
H	-4.2643078047	-1.4004824833	 1.5857616236	 0.089969
83.1071	152.666	210.0219	302.1483	346.0849	420.7035	424.0991	487.0599	571.8742	657.5629	691.6569	782.1177	794.4899	862.1952	883.1526	906.203	913.3043	917.112	932.9806	947.8114	958.3522	968.2325	1007.8037	1012.095	1057.5387	1068.5416	1082.1772	1103.8342	1132.0737	1149.0993	1159.8035	1186.5926	1236.1352	1242.4992	1277.823	1281.2633	1290.3371	1308.2636	1329.4396	1347.5891	1367.7257	1410.8788	1429.6087	1482.7686	1489.6738	1491.34	1498.6364	1507.6582	1517.7169	3006.8734	3030.4362	3033.626	3034.5315	3039.7635	3041.0243	3073.0474	3078.277	3080.2403	3102.1402	3103.0699	3118.9722	3185.4795	3195.2003
CCC12CC3CC1C2C3	CC[C@@]12C[C@H]3C[C@@H]1[C@@H]2C3	
InChI=1S/C9H14/c1-2-9-5-6-3-7(9)8(9)4-6/h6-8H,2-5H2,1H3	InChI=1S/C9H14/c1-2-9-5-6-3-7(9)8(9)4-6/h6-8H,2-5H2,1H3/t6-,7+,8-,9+
