20
gdb 96300	2.16385	1.72624	1.16032	4.1224	75.03	-0.2149	0.0104	0.2253	1112.5753	0.172262	-440.307794	-440.299207	-440.298262	-440.341043	32.57	
C	 0.5919147553	 1.1561223502	 0.6620847133	-0.337296
N	 0.0364628221	 0.0293881859	-0.0724405371	-0.033972
C	 0.5744351803	-0.1697407865	-1.4093747929	-0.171594
C	 2.0018373029	-0.7372674296	-1.4966237828	-0.212729
C	 2.1558484554	-2.0951905416	-0.8164750477	-0.072122
O	 2.2421598993	-2.0282140048	 0.6147339923	-0.220608
C	 1.1806561486	-1.7018784446	 1.3949661757	 0.393995
O	 1.2909647963	-1.7933273839	 2.5877007792	-0.318255
C	-0.1027195415	-1.1787614951	 0.720341313	-0.306676
H	 1.6455654795	 1.0333168802	 0.9669915568	 0.113946
H	 0.5205284701	 2.0580609181	 0.0461773903	 0.119831
H	 0.0055953626	 1.3179696364	 1.5722616999	 0.131879
H	-0.1031799017	-0.8520982211	-1.9418562209	 0.1003
H	 0.5298073189	 0.7903426064	-1.935779425	 0.105167
H	 2.2678390206	-0.8554426282	-2.5548153429	 0.105006
H	 2.7314187621	-0.0434539777	-1.0635606176	 0.119183
H	 1.3478551161	-2.7774859277	-1.1128019746	 0.108422
H	 3.1002918406	-2.5597896184	-1.1085809636	 0.126254
H	-0.7944765435	-0.9970782589	 1.547540583	 0.131614
H	-0.534484394	-1.9652647793	 0.0890768419	 0.117656
74.0817	124.4241	184.5687	214.6127	282.1127	323.1437	368.7086	400.8074	430.9324	486.4186	526.5444	567.5841	679.1831	789.125	792.7869	868.4514	902.5682	967.7932	985.8805	1010.0082	1081.5195	1092.1051	1096.9166	1139.9507	1161.3117	1214.1423	1237.4469	1251.0036	1306.0205	1347.9684	1354.8308	1370.2306	1396.0048	1397.6217	1419.0283	1454.4044	1464.5165	1466.4909	1482.4189	1493.1307	1507.4869	1515.9526	1834.7716	2953.7711	3005.0803	3019.0419	3030.14	3033.7292	3059.1596	3064.0382	3079.4067	3095.6613	3103.9872	3105.1555
CN1CCCOC(=O)C1	CN1CCCOC(=O)C1	
InChI=1S/C6H11NO2/c1-7-3-2-4-9-6(8)5-7/h2-5H2,1H3	InChI=1S/C6H11NO2/c1-7-3-2-4-9-6(8)5-7/h2-5H2,1H3
