13
gdb 3500	7.3854	2.09461	2.0073	4.2888	58.78	-0.2563	0.0014	0.2577	653.5389	0.103909	-303.423742	-303.418258	-303.417314	-303.452931	20.828	
N	-0.076893147	-1.196537147	-0.1188297144	-0.325039
C	-0.0386841431	-0.0433606534	-0.047664915	 0.284995
C	-0.0336513754	 1.4100310462	 0.0383154868	-0.103195
C	 0.0215932474	 2.1146561287	 1.4211042182	-0.057894
C	 1.4856243301	 1.6286521836	 1.4675917484	-0.184091
N	 1.3536609803	 2.1032732921	 0.0018354196	-0.13835
C	 0.5927427047	 3.2985797345	 0.6151134028	-0.17053
H	-0.7249124478	 1.8238450096	-0.7006167185	 0.123097
H	-0.7427673331	 2.1057850918	 2.2034601032	 0.089064
H	 2.1996508171	 2.2208063542	 2.0432685263	 0.114517
H	 1.6789880941	 0.5592049624	 1.5666974723	 0.138403
H	-0.0609630635	 3.8130687238	-0.0940260192	 0.112352
H	 1.250061606	 3.9972297235	 1.1356723495	 0.116672
180.0723	182.2192	458.9305	517.4835	536.4745	617.8009	762.0369	783.7846	840.8865	895.394	906.3108	930.0904	1018.2366	1032.4556	1081.346	1094.2662	1124.3755	1145.2693	1176.4808	1202.9778	1230.0152	1240.2733	1280.0955	1379.3798	1516.9194	1553.123	2354.6103	3059.5762	3067.3802	3077.1334	3084.6032	3136.1957	3144.6087
N#CC1C2CN1C2	N#C[C@H]1[C@H]2CN1C2	
InChI=1S/C5H6N2/c6-1-5-4-2-7(5)3-4/h4-5H,2-3H2	InChI=1S/C5H6N2/c6-1-5-4-2-7(5)3-4/h4-5H,2-3H2/t5-/m0/s1
