21
gdb 26100	3.07229	1.17354	1.04497	0.7983	83.69	-0.2188	0.0238	0.2425	1254.3394	0.181788	-387.129069	-387.119853	-387.118909	-387.162798	35.61	
C	-0.0285483208	 1.5414199866	 0.0222323334	-0.398239
C	-0.0103230138	-0.0030023681	 0.0113887443	 0.138406
C	 0.7380015608	-0.5114898217	 1.2631884435	-0.398319
C	-1.4581329049	-0.523758701	 0.044213902	-0.415049
C	 0.7027529625	-0.4887223693	-1.232992772	 0.270651
C	 0.2144078654	-1.2724119526	-2.2337538981	-0.1291
O	 1.1578010275	-1.499155264	-3.1899101101	-0.151056
C	 2.2785144997	-0.8444866955	-2.7925802032	 0.004826
C	 2.0666348695	-0.2111187265	-1.6123553458	-0.298602
H	 0.9857054436	 1.952312951	 0.0061940854	 0.111307
H	-0.5615865657	 1.9328213563	-0.8497782031	 0.115696
H	-0.5271007385	 1.9142433045	 0.9238553127	 0.106976
H	 0.2462453362	-0.1573725174	 2.176009303	 0.106997
H	 0.7598048319	-1.6053783752	 1.2890129567	 0.11571
H	 1.7729491578	-0.1560012303	 1.2810028768	 0.1113
H	-2.0275441464	-0.1723374017	-0.8224499409	 0.113696
H	-1.487587204	-1.6182425833	 0.0512512109	 0.113715
H	-1.9691749385	-0.1699549632	 0.945390694	 0.108551
H	-0.7416339664	-1.7342405466	-2.4117397684	 0.132027
H	 3.127758682	-0.9266051984	-3.450781857	 0.133246
H	 2.7866143721	 0.3824984566	-1.070695474	 0.107262
53.5409	149.8922	198.5305	223.3529	270.9252	290.1462	324.8726	333.3274	338.8696	437.9601	464.1735	579.205	621.4666	688.4983	736.6068	791.5925	823.5092	834.5205	892.7143	928.8376	936.9967	958.4376	968.4246	1040.6417	1048.7842	1058.3203	1097.0437	1185.8797	1198.8787	1229.0017	1233.3665	1272.6029	1320.8686	1391.3819	1396.1189	1396.9753	1428.3285	1477.5711	1483.9421	1487.7327	1501.6366	1502.6625	1517.5126	1539.4082	1625.6064	3026.6536	3027.1066	3034.4976	3095.1859	3097.2121	3099.8849	3103.8627	3106.1477	3108.2326	3249.486	3280.7159	3286.1095
CC(C)(C)C1=COC=C1	CC(C)(C)c1cocc1	
InChI=1S/C8H12O/c1-8(2,3)7-4-5-9-6-7/h4-6H,1-3H3	InChI=1S/C8H12O/c1-8(2,3)7-4-5-9-6-7/h4-6H,1-3H3
