21
gdb 113900	2.86458	0.93202	0.81625	2.802	79.88	-0.2349	0.0333	0.2682	1489.133	0.18151	-420.412998	-420.40279	-420.401846	-420.449151	37.039	
C	-1.0275670392	 1.4726370576	 0.2071192987	-0.370743
C	-0.3958327155	 0.1340315714	-0.1676682169	-0.126428
N	 0.7178121733	-0.1585365163	 0.7366471707	-0.090267
C	 0.4009608081	-0.9401140865	 1.9292589968	-0.26724
C	 1.2410717924	-1.5319490711	 0.8529176074	-0.014366
C	 0.7726367458	-2.6844730801	-0.0073080635	-0.332364
C	 1.389831672	-2.780333515	-1.4088746301	 0.403095
N	 2.1293953577	-1.7064358691	-1.8129292749	-0.520933
O	 1.2209509541	-3.7587695641	-2.1087439949	-0.366293
H	-0.2808286293	 2.2709592963	 0.1797890303	 0.126144
H	-1.836439346	 1.7244145756	-0.4853996997	 0.114131
H	-1.4456356025	 1.4369569719	 1.2183795801	 0.119973
H	-1.1708633509	-0.6495981923	-0.1598343592	 0.088569
H	-0.0017709304	 0.1787993117	-1.1895865513	 0.101683
H	 0.8472542204	-0.6079970114	 2.8628616377	 0.117182
H	-0.6172892968	-1.3179203649	 2.0231063764	 0.110332
H	 2.3168718644	-1.5399997242	 1.0297944381	 0.099146
H	 1.0045048244	-3.6328882371	 0.4890250391	 0.138387
H	-0.3131922862	-2.6795395446	-0.1403294211	 0.133886
H	 2.2391341225	-0.8782871475	-1.2537785822	 0.276388
H	 2.5273938116	-1.73146134	-2.7373006914	 0.259718
35.2195	70.4326	97.27	143.9606	196.0208	233.5667	270.043	306.4987	339.3533	427.0688	455.103	487.9128	547.7772	575.1451	687.6079	740.4215	804.1524	817.2907	850.5861	912.0586	962.11	974.3414	1049.2402	1073.0971	1100.8556	1107.6429	1125.8717	1149.2806	1158.3375	1204.6561	1237.0498	1298.0243	1311.9862	1330.8457	1348.6254	1384.91	1409.5434	1425.1657	1457.2045	1488.8782	1491.7239	1504.4693	1520.6972	1618.6792	1799.5415	2967.9787	3040.1881	3054.1944	3059.9259	3085.1559	3089.9617	3105.934	3110.1703	3120.7838	3173.8714	3599.648	3735.5775
CCN1CC1CC(N)=O	CCN1C[C@H]1CC(=O)N	
InChI=1S/C6H12N2O/c1-2-8-4-5(8)3-6(7)9/h5H,2-4H2,1H3,(H2,7,9)	InChI=1S/C6H12N2O/c1-2-8-4-5(8)3-6(7)9/h5H,2-4H2,1H3,(H2,7,9)/t5-,8?/m1/s1
