19
gdb 59500	3.88258	0.78434	0.72067	1.7505	78.34	-0.2592	0.0508	0.31	1598.6203	0.155296	-422.967302	-422.956986	-422.956042	-423.004416	36.872	
C	-0.1143043836	 1.38520189	-0.4442732131	-0.416201
C	 0.0551693286	 0.0539412955	 0.2847779766	 0.110973
O	 0.7026110553	 0.2041921851	 1.5453790139	-0.432422
C	-1.2808852467	-0.6423223668	 0.4714266347	 0.03498
O	-1.8634219724	-1.2751662272	-0.6730260028	-0.256694
C	-1.483665154	-2.0961464716	 0.4358951435	 0.066647
C	-0.3680494159	-3.1069014394	 0.2210218598	-0.387504
C	-0.8632445211	-4.374161616	-0.3060647601	 0.291991
C	-1.2919824194	-5.4132332826	-0.7301704511	-0.430776
H	 0.8537327596	 1.8775905912	-0.5685678995	 0.126586
H	-0.5631867266	 1.2278872317	-1.4293610609	 0.140591
H	-0.7738857024	 2.0563336632	 0.1209687964	 0.107519
H	 0.7180511809	-0.5893602758	-0.3007272052	 0.095399
H	 0.236294185	 0.8884520769	 2.0383961912	 0.28085
H	-1.992898739	-0.0595100159	 1.0653244106	 0.080815
H	-2.3308745074	-2.4951997698	 0.9953221069	 0.102823
H	 0.3808510976	-2.6917153343	-0.4601815125	 0.141761
H	 0.1372923592	-3.276030729	 1.1811127983	 0.145508
H	-1.6623311278	-6.3314517852	-1.1135065167	 0.197152
13.8743	51.125	104.7069	157.3852	215.5663	251.068	260.9083	333.4839	343.3261	371.9024	387.0782	487.2483	516.9185	585.3567	620.7421	646.765	809.1945	818.3743	902.0321	930.9014	961.1809	980.8537	1031.4869	1066.5665	1096.3052	1118.6206	1154.3426	1192.0132	1236.2334	1268.359	1299.2559	1316.102	1337.78	1399.5966	1406.341	1409.8638	1452.6931	1488.2055	1493.051	1503.0276	2242.7537	3024.5577	3028.5315	3050.5079	3073.125	3084.1918	3101.8351	3107.0089	3126.7166	3507.4052	3800.4499
CC(O)C1OC1CC#C	C[C@@H](O)[C@H]1O[C@H]1CC#C	
InChI=1S/C7H10O2/c1-3-4-6-7(9-6)5(2)8/h1,5-8H,4H2,2H3	InChI=1S/C7H10O2/c1-3-4-6-7(9-6)5(2)8/h1,5-8H,4H2,2H3/t5-,6+,7-/m1/s1
