18
gdb 18300	2.95029	2.17743	1.92423	2.4044	66.35	-0.2296	0.0736	0.3032	804.5037	0.156741	-384.925338	-384.918582	-384.917638	-384.955943	27.259	
O	 0.0865605959	 1.3883915218	 0.0790813089	-0.433531
C	 0.008568973	-0.0026985577	 0.0159938645	 0.130129
C	-1.3273793668	-0.7195740888	 0.0392411116	-0.097797
C	-2.5958576585	 0.129253244	 0.0638666247	-0.240904
C	-2.9644842524	 0.6441955393	-1.3295051259	-0.074828
O	-1.8178613332	 1.1539206848	-2.0101804952	-0.260165
C	-0.938417674	 0.1008657678	-2.4051984937	-0.119613
C	-0.4605166115	-0.7166549204	-1.2219560954	-0.112562
H	-0.5228808514	 1.7467287077	-0.5828343001	 0.294808
H	 0.8220153192	-0.4451378554	 0.5820329206	 0.098459
H	-1.370106915	-1.6479688234	 0.5995422708	 0.085464
H	-3.4326194701	-0.4514869102	 0.4641107526	 0.101998
H	-2.4482813388	 0.9838908978	 0.7357246503	 0.118184
H	-3.412508581	-0.1593150027	-1.9346375092	 0.09439
H	-3.6796863664	 1.4695274462	-1.2761173407	 0.110287
H	-1.4502887336	-0.5467810774	-3.1348134903	 0.100523
H	-0.1011898834	 0.5894215603	-2.9150392307	 0.118554
H	 0.037108778	-1.6431464336	-1.4946680127	 0.086603
157.5775	189.4011	251.6162	371.4482	442.2666	465.4284	542.0836	577.5012	593.1105	730.0812	751.8142	772.9232	829.9819	870.8917	924.2039	948.4924	1023.6812	1045.0307	1051.2023	1078.182	1102.8931	1126.06	1133.2563	1135.7469	1219.7204	1251.2319	1267.5226	1318.2262	1339.8154	1342.4957	1366.3956	1374.292	1402.2271	1428.5095	1478.0329	1486.2326	1496.478	1507.6715	2978.0832	2986.6977	3030.7272	3068.4103	3081.029	3092.2789	3141.5952	3151.3698	3166.2673	3711.3229
OC1C2CCOCC12	O[C@H]1[C@H]2CCOC[C@@H]12	
InChI=1S/C6H10O2/c7-6-4-1-2-8-3-5(4)6/h4-7H,1-3H2	InChI=1S/C6H10O2/c7-6-4-1-2-8-3-5(4)6/h4-7H,1-3H2/t4-,5+,6-/m0/s1
