18
gdb 48200	2.38104	1.22812	0.95574	3.2766	79.06	-0.2299	-0.0319	0.198	1272.0134	0.145268	-401.884586	-401.875206	-401.874262	-401.919773	33.274	
O	-0.8180465968	 1.0367430021	-0.6635756244	-0.23769
C	 0.107577004	 0.9125322367	 0.0891073834	 0.17894
C	 1.2876090086	 1.8939338969	 0.1749208013	-0.213591
C	 1.1769289438	 2.6786952698	 1.41403814	 0.315433
C	 1.0910675077	 3.2709514976	 2.4581255229	-0.472987
N	 2.5222890174	 1.1285978934	 0.0315220872	-0.085876
C	 3.0765326879	 0.3429607546	 1.1628917737	-0.171027
C	 4.4951806589	 0.7356742512	 0.6860240779	-0.228271
C	 3.8010981153	 1.8590139327	-0.121203254	-0.162114
H	 0.1861326625	 0.0545791501	 0.7916244596	 0.089548
H	 1.2000195401	 2.5585901326	-0.6916224613	 0.128888
H	 1.0083947548	 3.8152655468	 3.3668429006	 0.206708
H	 2.8352392137	 0.7723993479	 2.1453775576	 0.105987
H	 2.807321579	-0.7175326818	 1.1559586396	 0.106872
H	 5.2058731909	 1.0445067799	 1.4524825678	 0.110444
H	 4.9514383848	-0.0223020998	 0.0474836199	 0.117464
H	 4.1073061509	 2.0219440065	-1.1593736641	 0.108472
H	 3.8141343965	 2.8193703426	 0.4149854724	 0.1028
59.5102	62.6531	106.3537	155.0811	169.2956	207.5342	324.9615	356.1027	437.1547	500.1298	541.5681	641.097	661.1767	715.6695	781.0214	847.952	909.0981	920.591	942.9456	986.3287	1035.63	1043.3657	1102.2726	1134.7857	1153.6428	1189.1289	1215.4677	1220.3643	1252.8169	1270.2229	1291.6736	1342.3524	1353.5733	1417.4203	1488.6593	1503.6129	1530.1481	1844.9078	2214.8301	2897.0998	2994.7411	3008.6543	3057.4326	3068.6891	3072.6685	3090.0867	3145.7458	3499.0263
O=CC(C#C)N1CCC1	O=C[C@@H](C#C)N1CCC1	
InChI=1S/C7H9NO/c1-2-7(6-9)8-4-3-5-8/h1,6-7H,3-5H2	InChI=1S/C7H9NO/c1-2-7(6-9)8-4-3-5-8/h1,6-7H,3-5H2/t7-/m1/s1
