17
gdb 127300	3.85784	1.1138	0.87374	4.7217	78.55	-0.2388	-0.0338	0.205	1300.633	0.135801	-418.057705	-418.048712	-418.047768	-418.09262	31.346	
C	 0.0270620711	 1.4195944955	 0.0730923666	-0.32165
N	 0.0877529038	-0.025576868	-0.0166303359	 0.061803
C	 0.1477317441	-0.787179874	-1.1457183635	-0.024071
C	 0.120250131	-2.1006538358	-0.7434938121	-0.299557
C	 0.03924299	-2.0351738658	 0.666857968	 0.252001
N	 0.0173407401	-0.7656586216	 1.0946036876	-0.329513
C	-0.0102117636	-3.1790839062	 1.6047869066	 0.31386
C	-0.0875312201	-2.864233648	 3.0852383459	-0.480289
O	 0.0109266355	-4.3179012358	 1.1812871938	-0.314964
H	 0.4446703264	 1.8530990073	-0.8372718693	 0.14354
H	-1.0055800115	 1.7617366735	 0.19453364	 0.150396
H	 0.6124191246	 1.7450380966	 0.9340442372	 0.160985
H	 0.2070795314	-0.3325249966	-2.1220828807	 0.137345
H	 0.1610764879	-2.9891169288	-1.3500509694	 0.131338
H	-0.9729081319	-2.2577619562	 3.2998060903	 0.143956
H	-0.1228871399	-3.796934212	 3.6489324511	 0.131011
H	 0.7777717011	-2.2687941139	 3.3928015838	 0.143809
49.3372	66.4001	111.187	150.4646	161.2294	250.2745	353.2187	372.1356	510.4301	563.9227	625.9937	639.1834	716.1283	728.6401	785.9483	868.6358	945.7077	998.4571	1016.3102	1046.5543	1061.1164	1088.1932	1145.162	1150.0853	1252.4133	1342.1317	1379.3316	1396.7779	1436.3217	1456.1341	1459.6717	1468.6493	1481.2255	1495.5121	1519.252	1546.9819	1777.8972	3047.9068	3048.625	3111.2356	3122.946	3155.82	3156.311	3258.7091	3291.3988
CN1C=CC(=N1)C(C)=O	Cn1ccc(n1)C(=O)C	
InChI=1S/C6H8N2O/c1-5(9)6-3-4-8(2)7-6/h3-4H,1-2H3	InChI=1S/C6H8N2O/c1-5(9)6-3-4-8(2)7-6/h3-4H,1-2H3
