22
gdb 62700	2.74907	1.6773	1.48318	1.4399	84.21	-0.2311	0.0839	0.315	1025.2809	0.195879	-367.184473	-367.176528	-367.175584	-367.216104	32.962	
C	 0.1206722812	 1.4267229528	 0.416325114	-0.43333
C	-0.072844007	-0.0395507376	 0.0074777027	 0.315792
C	-1.5218483325	-0.4524563693	 0.2715642826	-0.463335
C	 0.5311228452	-0.2477926348	-1.4001084338	-0.075401
C	 1.8201819303	-0.7310805176	-0.8174413864	-0.064278
C	 1.1177427592	-0.9148675238	 0.5611987178	-0.089808
C	 0.7755590082	-2.4078450706	 0.601139272	-0.239181
C	 0.504730855	-2.7309808717	-0.8932506922	-0.159651
N	 1.0408503785	-1.6001764261	-1.6807442218	-0.107858
H	 1.1527706944	 1.7548426983	 0.2591110538	 0.115476
H	-0.5325816478	 2.0862609248	-0.1668713509	 0.11019
H	-0.1241109673	 1.5702322506	 1.474892426	 0.110468
H	-2.2037632678	 0.1918434908	-0.2957035988	 0.113194
H	-1.7373949725	-1.4834397415	-0.0132512102	 0.115038
H	-1.7747552471	-0.3381557777	 1.3323676142	 0.111678
H	 0.3506798292	 0.3929693195	-2.2590690984	 0.0811
H	 2.8539807526	-0.4934845063	-1.0379824362	 0.086436
H	 1.6027055989	-0.5285449964	 1.458603129	 0.062354
H	 1.6275325879	-2.9845773304	 0.9775434637	 0.097361
H	-0.0803541634	-2.6292809813	 1.2455606154	 0.100604
H	 1.0308224412	-3.6359723603	-1.2122615581	 0.104749
H	-0.5546014666	-2.8769160912	-1.1203047245	 0.108401
193.7971	206.0547	235.0127	238.2869	281.5379	345.0986	358.0834	428.8545	523.751	598.5963	667.9913	731.0872	778.3872	824.665	844.0246	849.4529	882.4457	919.4641	929.0715	951.2359	953.6919	977.8967	1000.6376	1026.995	1051.0943	1055.5747	1068.4003	1162.6842	1194.1461	1195.374	1212.4627	1223.823	1238.0743	1254.3307	1271.3434	1293.8579	1326.8923	1342.8404	1365.3621	1400.4627	1421.996	1480.1883	1486.6959	1491.1805	1502.3565	1512.4089	1519.1911	3021.4604	3029.5239	3040.3422	3055.8714	3080.109	3082.782	3087.3294	3100.3172	3101.5007	3105.3551	3133.6634	3143.664	3182.3361
CC1(C)C2C3C1CCN23	CC1(C)[C@H]2[C@H]3[C@@H]1CCN23	
InChI=1S/C8H13N/c1-8(2)5-3-4-9-6(5)7(8)9/h5-7H,3-4H2,1-2H3	InChI=1S/C8H13N/c1-8(2)5-3-4-9-6(5)7(8)9/h5-7H,3-4H2,1-2H3/t5-,6+,7+,9?/m0/s1
