19
gdb 61800	2.42735	0.98013	0.87946	3.6924	73.64	-0.2571	-0.0333	0.2239	1403.1456	0.154796	-460.199903	-460.189214	-460.18827	-460.238253	36.045	
C	 0.0445804899	 1.6129213458	 0.0691072299	-0.399923
C	 0.0096998463	 0.0903027396	 0.0088506253	 0.090566
O	-1.3650243228	-0.3551706041	 0.0067808527	-0.196093
C	-1.8907659852	-0.8218940887	 1.1554265784	 0.172264
O	-3.025889901	-1.1775120572	 1.2502596037	-0.271314
C	 0.6935890163	-0.5071075865	-1.2394308924	-0.067516
C	 0.764462938	-2.0390158946	-1.1763030051	-0.430627
C	-0.0303395269	-0.061588458	-2.505176596	 0.169335
O	 0.3583995302	 0.8156730785	-3.2325051325	-0.252577
H	 1.0795100084	 1.967138434	 0.0794436099	 0.131672
H	-0.458624282	 2.0536297756	-0.7948211998	 0.15328
H	-0.450578132	 1.9681063874	 0.9772025343	 0.126674
H	 0.5070980081	-0.3263132174	 0.8963021967	 0.091191
H	-1.1556600701	-0.84313574	 1.9844247304	 0.078937
H	 1.6999413102	-0.077961621	-1.2875258265	 0.103328
H	 1.2955819538	-2.4430963022	-2.042884637	 0.133572
H	 1.2959667417	-2.3655453288	-0.2768214483	 0.124081
H	-0.2370785878	-2.4784640099	-1.15674925	 0.145178
H	-0.970009965	-0.6155873524	-2.7197488936	 0.097974
12.17	45.3124	64.5725	144.4021	194.6056	202.5111	222.3234	226.792	291.1896	316.0877	370.8101	441.1174	513.3561	587.9857	639.7206	829.931	900.7544	939.2192	963.9312	1017.4377	1036.2783	1045.765	1086.8334	1131.1077	1155.2261	1173.8834	1197.5	1287.6153	1326.2834	1357.2452	1377.1071	1406.2911	1418.4618	1427.6004	1439.4831	1486.1663	1493.8689	1497.7037	1502.8967	1828.8099	1867.0154	2900.0245	2940.3063	3003.0897	3040.5937	3048.1081	3063.2005	3109.731	3119.5515	3121.1489	3134.3059
CC(OC=O)C(C)C=O	C[C@@H](OC=O)[C@@H](C)C=O	
InChI=1S/C6H10O3/c1-5(3-7)6(2)9-4-8/h3-6H,1-2H3	InChI=1S/C6H10O3/c1-5(3-7)6(2)9-4-8/h3-6H,1-2H3/t5-,6+/m0/s1
