18
gdb 45500	4.03361	1.29415	1.05304	3.1397	79.97	-0.2492	0.0013	0.2505	1137.4135	0.150443	-401.982715	-401.975498	-401.974554	-402.014514	28.641	
N	-0.0644886431	 1.1018449094	-0.5636869603	-0.534614
C	-0.0315126366	-0.0391495355	-0.0287373931	 0.410964
C	-1.2612872994	-0.9033791094	 0.2684297658	-0.438081
C	-0.6180609441	-2.2248876043	 0.5172215748	 0.322027
C	-0.7911907764	-3.5086077121	 0.2211688256	-0.224372
C	 0.4887624824	-4.2914848746	 0.4619554925	-0.252093
C	 1.5743037258	-3.1738833058	 0.5190139576	-0.246869
C	 0.7850465979	-1.945911616	 0.986749352	 0.070568
O	 1.1157216827	-0.6839657671	 0.3652850071	-0.259012
H	 0.8785983568	 1.4846220845	-0.6510723726	 0.222342
H	-1.7677327357	-0.5017365666	 1.1562751849	 0.140579
H	-1.9708438118	-0.8728149868	-0.5589988312	 0.147853
H	-1.6933934769	-3.958938722	-0.1766222446	 0.101933
H	 0.449432201	-4.8584121237	 1.4022843736	 0.113111
H	 0.6841197317	-5.0227091731	-0.3293259213	 0.111882
H	 2.4226160035	-3.4239334289	 1.1601496172	 0.102973
H	 1.9520270797	-2.9746379289	-0.4885946857	 0.122001
H	 0.8567083424	-1.800160599	 2.0745985476	 0.088808
88.7491	149.6615	246.6827	329.692	348.5343	477.1847	524.8747	568.5217	604.3323	691.7655	730.9059	818.6629	836.055	863.2346	875.4705	891.208	914.8237	967.7799	972.4567	994.0498	1041.8135	1067.7623	1087.989	1140.2018	1169.7028	1175.5193	1229.3952	1245.4254	1266.7843	1286.4731	1303.5849	1335.4521	1355.4625	1380.1861	1458.3691	1484.4482	1499.4972	1750.6712	1781.6013	2992.5283	3015.5418	3026.5254	3059.8698	3071.1416	3116.2464	3128.4145	3199.3521	3472.0299
N=C1CC2=CCCC2O1	[NH][C]1CC2=CCC[C@H]2O1	
InChI=1S/C7H9NO/c8-7-4-5-2-1-3-6(5)9-7/h2,6,8H,1,3-4H2	InChI=1S/C7H9NO/c8-7-4-5-2-1-3-6(5)9-7/h2,6,8H,1,3-4H2/t6-/m1/s1
