14
gdb 129300	3.49936	1.22929	0.92061	3.4665	69.86	-0.2282	-0.0001	0.2281	1176.6208	0.100375	-432.815034	-432.80691	-432.805966	-432.849353	29.101	
N	 0.0084017095	 1.1757422223	-0.9364296991	-0.615452
C	 0.0611551126	 0.0138721976	-0.4362482574	 0.507087
O	 1.0875781023	-0.8875522767	-0.4307642303	-0.251612
N	 0.6834909092	-2.0787765843	 0.2524226395	-0.151432
C	-0.5302938155	-1.8414455205	 0.6135172432	 0.078363
N	-0.9771512499	-0.6067788725	 0.2449204015	-0.119097
C	-2.2770172636	 0.0245926024	 0.4319882054	-0.287
C	-3.0805652806	-0.649802465	 1.4409414959	 0.268157
C	-3.7539864207	-1.2087545948	 2.2628967021	-0.406361
H	 0.8872014578	 1.4288053443	-1.3799513524	 0.237378
H	-1.1344518695	-2.5453746271	 1.1644331284	 0.178196
H	-2.0915887848	 1.069280012	 0.7065284012	 0.180773
H	-2.810826758	 0.0499236394	-0.5269122568	 0.165127
H	-4.3550997387	-1.6897525871	 2.9953557489	 0.215874
16.9961	117.4354	160.1122	220.6063	254.9744	320.3139	409.8077	544.0502	592.3325	631.3102	686.2997	701.3127	727.4989	754.9708	805.7313	871.3037	901.397	946.6469	967.0888	996.0615	1040.7258	1188.5938	1225.3751	1254.9867	1297.3562	1382.6183	1448.2681	1504.4686	1652.3304	1773.5195	2250.0762	3026.4344	3065.7457	3276.2825	3500.5661	3545.758
N=C1ON=CN1CC#C	[NH][C@@H]1ON=CN1CC#C	
InChI=1S/C5H5N3O/c1-2-3-8-4-7-9-5(8)6/h1,4,6H,3H2	InChI=1S/C5H6N3O/c1-2-3-8-4-7-9-5(8)6/h1,4-6H,3H2/t5-/m0/s1
