21
gdb 78500	2.45898	1.59071	1.27177	1.7786	82.86	-0.2205	0.0899	0.3104	1125.1002	0.180963	-387.044368	-387.035337	-387.034393	-387.077445	34.807	
C	 0.0482558571	 1.6101699608	 0.031621893	-0.419847
C	 0.0811300672	 0.0898547868	 0.0004305447	 0.026974
C	 0.7614271722	-0.6578727745	-1.1509600802	-0.228853
C	 2.2436608295	-0.7902874693	-0.7297247858	 0.425172
C	 3.4149273023	-0.8937968286	-1.6457457997	-0.50918
O	 2.3928499475	-0.0918708357	 0.5139945824	-0.328451
C	 1.1099596222	-0.6607848121	 0.8961610633	-0.002637
C	 1.2418897586	-1.7731805506	-0.215810848	 0.238388
C	 1.1035255656	-3.2599147981	-0.2353720059	-0.53337
H	 1.0614058518	 2.0129031093	-0.0394422045	 0.131448
H	-0.5420399804	 2.0066263924	-0.801784367	 0.10863
H	-0.402716043	 1.9768426119	 0.9609474646	 0.107868
H	-0.9136959883	-0.3380098304	 0.1699716182	 0.069212
H	 0.4436870535	-0.7459042104	-2.1838186002	 0.078682
H	 3.7182873387	 0.0969304785	-2.0012137284	 0.132922
H	 4.2702876116	-1.3527158735	-1.1396055094	 0.129416
H	 3.1623469008	-1.502905449	-2.5188850745	 0.123943
H	 0.9923602256	-0.7810230779	 1.9722609275	 0.076246
H	 0.0816954418	-3.5748943808	 0.0064888633	 0.123151
H	 1.3403851109	-3.6554372038	-1.2292106471	 0.123685
H	 1.7799037049	-3.7374351651	 0.4826992537	 0.126601
155.6369	162.8079	184.1838	193.3399	197.4248	214.256	276.996	325.2812	377.5569	540.5418	590.4305	625.1711	670.3364	725.3151	745.1932	811.8245	866.7261	899.1344	909.225	931.0294	945.0079	1002.6717	1036.0704	1077.816	1096.2816	1106.4496	1123.4845	1138.2396	1151.7715	1174.4998	1213.2258	1261.4612	1289.7185	1326.6206	1380.3382	1402.1634	1412.1133	1413.3	1471.9428	1480.8936	1488.6721	1490.0746	1495.3688	1502.6351	1515.9024	3020.537	3029.7906	3033.6088	3044.1195	3080.0475	3089.579	3090.2971	3098.1547	3111.7757	3126.185	3130.2667	3180.064
CC1C2C3(C)OC1C23C	C[C@H]1[C@H]2[C@@]3(C)O[C@@H]1[C@@]23C	
InChI=1S/C8H12O/c1-4-5-7(2)6(4)9-8(5,7)3/h4-6H,1-3H3	InChI=1S/C8H12O/c1-4-5-7(2)6(4)9-8(5,7)3/h4-6H,1-3H3/t4-,5+,6-,7+,8+/m0/s1
