19
gdb 91000	3.47583	1.55091	1.41103	2.5872	72.85	-0.2388	0.0715	0.3103	965.7965	0.162561	-423.009433	-423.002686	-423.001742	-423.040252	28.49	
O	-0.0532493805	 1.4404744231	-0.0247655092	-0.435853
C	 0.0186952135	 0.026277723	 0.024180331	 0.130095
C	 0.6933446739	-0.5539807127	 1.3096976909	-0.300295
C	-0.2171895109	-1.7286201907	 1.6707117089	-0.022118
C	-1.6536519828	-1.4105270334	 2.2050891575	 0.064123
C	-2.0704840667	-0.1594990072	 1.4081388546	-0.222965
C	-1.3896490849	-0.5772045288	 0.0709149612	-0.059443
C	-1.1178400409	-2.0709978854	 0.4580558084	 0.075331
O	-2.1811215565	-2.4722713701	 1.349785469	-0.299686
H	 0.8447789068	 1.7855093688	-0.0454590912	 0.282523
H	 0.5471638423	-0.3524420795	-0.8658869026	 0.064375
H	 1.722453113	-0.8758788687	 1.1231433307	 0.097031
H	 0.7251499193	 0.2104718582	 2.0934157517	 0.10646
H	 0.2335801771	-2.5868667991	 2.1673266664	 0.077298
H	-1.9386043901	-1.5026305001	 3.2534918164	 0.075037
H	-3.1581012778	-0.107880583	 1.3337872443	 0.106358
H	-1.6907568663	 0.7873318291	 1.7956573013	 0.113285
H	-1.9773845883	-0.4044943112	-0.8298078509	 0.070707
H	-0.8798570802	-2.7944231421	-0.3216965482	 0.077738
145.1793	275.7126	287.5455	345.9523	411.136	485.1389	526.5481	586.2659	685.5693	714.6771	798.2505	807.5907	856.387	869.4145	897.8977	904.473	955.2583	970.9241	984.5811	1002.9257	1037.1669	1049.6176	1066.7517	1081.4514	1119.1154	1153.0121	1168.858	1214.6342	1226.3521	1235.9216	1248.8369	1251.0027	1290.1691	1297.9397	1311.3324	1335.6895	1348.3379	1373.6471	1432.9681	1484.6736	1501.1563	2960.9311	3044.3225	3081.3826	3086.4548	3114.9879	3116.378	3123.5383	3132.6234	3136.0869	3819.1787
OC1CC2C3CC1C2O3	O[C@H]1C[C@H]2[C@H]3C[C@@H]1[C@@H]2O3	
InChI=1S/C7H10O2/c8-5-1-4-6-2-3(5)7(4)9-6/h3-8H,1-2H2	InChI=1S/C7H10O2/c8-5-1-4-6-2-3(5)7(4)9-6/h3-8H,1-2H2/t3-,4-,5-,6+,7-/m0/s1
