12
gdb 10800	4.99918	1.65699	1.31293	2.254	51.11	-0.2894	-0.0204	0.269	847.2695	0.084261	-455.670184	-455.663593	-455.662649	-455.701448	23.404	
O	 0.0481386814	 0.1651005047	 0.8163527258	-0.306497
C	 0.0321841971	 1.1977900583	 0.2128129284	 0.419711
C	-1.2473362385	 1.8874487334	-0.237007382	-0.23138
O	-1.1767546666	 3.3175669991	-0.2074821457	-0.208844
C	-0.0629063812	 3.9003773276	-0.7029906877	 0.419701
O	-0.000499964	 5.0828696533	-0.8726317848	-0.306496
C	 1.0777523317	 2.9452808509	-1.0221285763	-0.23137
O	 1.1752446469	 1.8363466474	-0.121102863	-0.208847
H	-1.5062990105	 1.5444152349	-1.248009536	 0.152063
H	-2.0513017062	 1.5993644267	 0.438313842	 0.174943
H	 0.9679116075	 2.5833631488	-2.0535389167	 0.152068
H	 2.0167720824	 3.491527825	-0.949524634	 0.174947
81.0524	175.545	184.6503	407.1988	423.0171	433.1007	546.9915	586.7601	622.3177	793.6113	794.6854	862.3314	1004.7926	1035.8588	1075.6362	1110.5482	1200.7426	1223.5995	1256.6255	1306.4152	1389.1086	1393.2933	1480.0596	1490.5302	1869.3274	1876.7941	3025.303	3025.4722	3154.7487	3155.9985
O=C1COC(=O)CO1	O=C1COC(=O)CO1	
InChI=1S/C4H4O4/c5-3-1-7-4(6)2-8-3/h1-2H2	InChI=1S/C4H4O4/c5-3-1-7-4(6)2-8-3/h1-2H2
