13
gdb 130500	4.16024	1.65959	1.18634	0.8243	71.75	-0.2654	-0.0573	0.2081	933.2147	0.093459	-415.649521	-415.643811	-415.642867	-415.679574	22.75	
O	-0.0224453283	 1.3171416539	 0.0093001759	-0.247445
N	 1.2919796523	 1.83462873	-0.0007239451	-0.112486
C	 2.1003977678	 0.8150408201	-0.013482538	-0.086851
C	 1.3924034003	-0.4299845867	-0.0134998421	 0.104434
C	 0.054860377	-0.0240585753	 0.0014530177	 0.443538
C	-0.9824049498	-0.9492171266	 0.0064450714	-0.283466
C	-0.5773877839	-2.2775348228	-0.0045085754	 0.029025
N	 0.702538278	-2.7058592603	-0.0190454244	-0.28267
C	 1.6721127116	-1.8003646561	-0.0235189465	-0.089471
H	 3.1662127363	 0.9957807277	-0.0226706916	 0.150508
H	-2.0259154246	-0.6627883307	 0.0179439651	 0.127694
H	-1.3289432023	-3.0623203182	-0.0015026284	 0.123129
H	 2.6942898655	-2.170767265	-0.0352015985	 0.12406
216.7837	255.1202	402.9792	421.6571	551.3675	600.7661	635.6021	639.4612	802.3558	802.8053	848.4928	873.8232	904.2412	906.4944	955.1359	958.9318	991.8522	1048.2476	1196.1845	1208.2357	1265.5909	1295.4257	1335.8499	1347.8893	1467.0448	1470.6274	1556.4918	1626.0288	1642.4774	3159.4148	3169.3818	3221.9831	3245.0415
O1N=CC2=C1C=CN=C2	o1ncc2c1ccnc2	
InChI=1S/C6H4N2O/c1-2-7-3-5-4-8-9-6(1)5/h1-4H	InChI=1S/C6H4N2O/c1-2-7-3-5-4-8-9-6(1)5/h1-4H
