20
gdb 104600	2.2147	1.36891	0.97737	6.1957	75.08	-0.2417	0.0299	0.2716	1248.5398	0.172062	-440.307777	-440.298777	-440.297832	-440.341627	34.292	
N	 0.8509727008	 1.5470617336	 2.581112857	-0.525849
H	 1.0948083239	 0.6111228643	 2.8899679783	 0.247875
H	 0.8054644888	 2.132080552	 3.4105747879	 0.243264
H	 1.7740391379	 1.9942044897	 1.0476397439	 0.312711
C	-0.4500956729	 1.5369082128	 1.884277067	-0.255441
C	-0.8442593169	 2.9374961152	 1.4413760862	 0.373489
C	 0.2551220233	 3.8000397454	 0.8164073902	-0.402562
C	 1.0367127028	 3.1264486562	-0.3154129241	 0.394481
O	 1.8768565076	 2.1522891941	 0.0764931255	-0.382481
O	 0.9312915027	 3.4401714785	-1.4718220332	-0.329464
C	-2.2516172236	 3.095414745	 0.9246009515	-0.297787
C	-1.8790215654	 3.6724759116	 2.2684568737	-0.317451
H	-0.3312932489	 0.88961849	 1.007850348	 0.134645
H	-1.2614155006	 1.1114348596	 2.4925867961	 0.095972
H	-0.187798566	 4.7078266515	 0.4030338047	 0.123861
H	 0.968324554	 4.1020626092	 1.593281104	 0.112511
H	-2.4126093633	 3.7761902333	 0.0965250812	 0.130643
H	-2.8903408168	 2.218213951	 0.9067459289	 0.114268
H	-2.2669168546	 3.1849283946	 3.1573681113	 0.109571
H	-1.7900181229	 4.7500515127	 2.3561481019	 0.117744
78.7767	93.0536	175.0355	212.3212	238.9787	316.5762	326.9561	367.7055	415.7578	463.726	498.1751	593.2499	677.6578	781.4093	793.042	848.4949	884.5083	892.5848	935.6335	939.96	963.5838	980.5561	1013.7264	1044.2456	1056.3812	1061.7325	1085.561	1158.7586	1186.6561	1207.0462	1266.5068	1285.9586	1320.2763	1331.9422	1375.4004	1432.8831	1464.882	1469.4238	1484.7011	1504.1663	1515.2406	1647.6174	1859.4147	2994.4752	3034.8074	3061.0179	3115.7084	3125.8597	3134.5183	3206.61	3222.7622	3310.3671	3494.6758	3575.6155
[NH3+]CC1(CC([O-])=O)CC1	NCC1(CC(=O)O)CC1	
InChI=1S/C6H11NO2/c7-4-6(1-2-6)3-5(8)9/h1-4,7H2,(H,8,9)	InChI=1S/C6H11NO2/c7-4-6(1-2-6)3-5(8)9/h1-4,7H2,(H,8,9)
