16
gdb 51300	3.36919	1.07874	0.82104	3.57	81.09	-0.1789	0.0086	0.1875	1331.997	0.125518	-434.098842	-434.090215	-434.089271	-434.13225	32.552	
N	 0.0505181881	 0.8673593645	 0.1364551706	-0.50449
H	 0.2008877061	 0.0554746338	-0.4415983591	 0.254488
H	 0.8700005238	 1.4396300317	 0.2842833854	 0.254928
C	-1.1169769834	 1.5651112613	-0.0578820127	 0.087515
N	-1.2177841368	 2.810450811	 0.1964724093	-0.360565
C	-2.4447826296	 3.4661870016	 0.1234174174	 0.192096
C	-3.7625172647	 3.0358698005	 0.1686230231	-0.162814
N	-4.558831232	 4.143350407	 0.0571267905	-0.245674
C	-3.7912125649	 5.2899689507	-0.0423961917	-0.178002
H	-4.2344436369	 6.2660710241	-0.1364257796	 0.117531
C	-2.4794036274	 4.8889906112	 0.0002490447	 0.246056
O	-1.3696168236	 5.6687486547	-0.072676766	-0.45626
H	-1.9524000045	 0.9416660998	-0.3990097285	 0.096888
H	-0.6275819869	 5.0558731126	 0.0340799842	 0.290267
H	-4.1862622223	 2.0551516954	 0.3096845939	 0.108863
H	-5.5602868949	 4.1352485802	 0.1165743486	 0.259173
69.9404	122.3293	154.8868	284.227	291.723	318.2235	400.3233	433.2722	451.5213	484.2133	550.7799	597.6576	614.0559	621.4035	673.6786	719.0041	736.0624	800.6528	910.267	983.8743	1066.8835	1073.5532	1143.6671	1188.1558	1254.3791	1279.0073	1310.9014	1343.9494	1410.4771	1457.3809	1477.452	1562.1988	1626.6339	1660.2948	1743.4058	3048.0868	3261.8909	3281.593	3565.1449	3685.9805	3702.0109	3735.0054
[NH2+]=CNC1=CN[CH-]C1=O	NC=Nc1c[nH]cc1O	
InChI=1S/C5H6N3O/c6-3-8-4-1-7-2-5(4)9/h1-3,7H,(H2,6,8)/q-1/p+1	InChI=1S/C5H7N3O/c6-3-8-4-1-7-2-5(4)9/h1-3,7,9H,(H2,6,8)
