20
gdb 104300	2.87862	1.40301	1.22758	3.3678	74.16	-0.246	0.065	0.311	1096.8002	0.171436	-440.261609	-440.253052	-440.252108	-440.294446	33.36	
C	-0.4310923027	 1.7135956068	 0.3329342218	-0.423866
C	-0.0130115895	 0.2594112438	 0.152103609	 0.356024
C	-1.213574162	-0.6586899284	-0.1474003009	-0.078088
O	-1.7973624738	-0.3349330841	-1.3909161929	-0.425827
O	 0.8686824695	 0.2083743455	-0.9990793927	-0.315167
C	 1.9129093581	-0.7459011335	-0.8017017294	-0.089895
C	 2.0202922709	-0.9335079915	 0.6949475373	-0.049828
N	 2.1381217703	 0.3518529969	 1.4136374964	-0.336565
C	 0.8215943992	-0.304964281	 1.289438335	-0.109301
H	 0.4547322957	 2.3338508584	 0.4785515526	 0.1374
H	-0.9803209645	 2.0578464282	-0.5459648872	 0.130352
H	-1.0856390895	 1.8148352322	 1.2049708368	 0.106265
H	-0.8809980845	-1.7105324793	-0.1223031825	 0.075421
H	-1.9882926105	-0.5392022314	 0.6183668074	 0.101732
H	-1.0514387902	-0.2149834151	-1.9941612287	 0.287279
H	 1.6782251006	-1.7072462134	-1.2837607386	 0.095055
H	 2.8213185744	-0.3384656583	-1.2577971084	 0.11696
H	 2.4779156025	-1.8293503705	 1.1005497929	 0.096204
H	 2.5089993287	 0.1793292657	 2.345159035	 0.233698
H	 0.3267388574	-0.703596741	 2.1693139471	 0.092146
107.6216	142.8475	175.8561	222.23	269.3827	338.1287	350.7701	388.6896	417.0585	511.6599	548.3603	659.5974	722.087	788.1153	821.4529	866.7364	881.9361	902.7273	926.3732	958.5721	981.3372	1022.5621	1065.7674	1081.8083	1099.9057	1118.063	1150.5047	1161.9357	1200.7238	1228.2852	1233.0478	1256.4216	1264.9183	1354.0383	1377.9202	1388.0204	1404.0475	1431.6945	1442.9185	1488.2897	1492.1973	1504.1951	1512.0133	2955.8076	2988.4191	3047.7685	3063.2614	3069.3977	3121.1509	3149.3065	3162.1302	3175.354	3499.6115	3758.6187
CC1(CO)OCC2NC12	C[C@@]1(CO)OC[C@H]2N[C@@H]12	
InChI=1S/C6H11NO2/c1-6(3-8)5-4(7-5)2-9-6/h4-5,7-8H,2-3H2,1H3	InChI=1S/C6H11NO2/c1-6(3-8)5-4(7-5)2-9-6/h4-5,7-8H,2-3H2,1H3/t4-,5-,6+/m1/s1
