21
gdb 77900	2.07702	1.54587	1.36702	1.8775	78.28	-0.2462	0.0679	0.3142	1112.0943	0.181192	-424.197893	-424.18819	-424.187246	-424.231628	36.93	
C	-0.1054346811	 1.6016309225	 0.0571950534	-0.44379
C	 0.08309394	 0.0942938599	 0.1348495813	-0.056364
C	 1.3148691131	-0.6857154659	-0.2286633212	-0.142777
C	 2.6084868985	-0.0548613654	 0.2858549722	 0.105069
O	 2.9710174046	 1.2192553436	-0.1993949042	-0.445169
C	 2.0297319214	-0.0889892199	 1.7412915103	 0.019684
O	 2.0038284157	 1.1435305326	 2.4417785283	-0.445706
C	 0.7401776589	-0.7252025542	 1.2215406342	 0.274395
C	 0.0207215	-1.8333539764	 1.9426373365	-0.499236
H	 0.8233540834	 2.1488239443	 0.2122783826	 0.130445
H	-0.4636107038	 1.8786101819	-0.9401357569	 0.123125
H	-0.8611857681	 1.9405693101	 0.7768391471	 0.107985
H	-0.8083772646	-0.4306457551	-0.2096441936	 0.087777
H	 1.2844347343	-1.47567126	-0.9706185034	 0.084058
H	 3.4511582393	-0.7511150234	 0.1807141463	 0.072087
H	 3.1604996881	 1.7472096862	 0.5889937631	 0.285053
H	 2.5921292574	-0.7821496527	 2.3732950681	 0.087836
H	 1.2103892179	 1.6210541947	 2.1825046673	 0.293912
H	-0.5268442485	-1.4530620995	 2.8135880049	 0.123688
H	-0.7053795112	-2.326673504	 1.2883974919	 0.119479
H	 0.7204326646	-2.5965956594	 2.3021475619	 0.118448
120.6217	155.6635	178.6374	189.3806	211.5176	232.6719	251.7466	292.4709	332.9964	365.641	454.0022	508.2309	558.9764	631.1003	700.5551	723.727	767.2975	837.3001	888.3138	945.9049	961.8686	977.2185	1035.9259	1059.1885	1097.5117	1100.6753	1123.0709	1152.6914	1162.0734	1187.2388	1218.3533	1267.7064	1297.6473	1320.306	1355.3328	1366.6965	1389.1247	1409.3809	1416.1456	1424.631	1473.7088	1485.8838	1496.7884	1500.0516	1514.9125	3005.8096	3020.2297	3025.7999	3069.6559	3078.3096	3082.4182	3095.3301	3102.9171	3155.808	3174.9637	3741.5432	3840.3445
CC1C2C(O)C(O)C12C	C[C@H]1[C@H]2[C@@H](O)[C@@H](O)[C@@]12C	
InChI=1S/C7H12O2/c1-3-4-5(8)6(9)7(3,4)2/h3-6,8-9H,1-2H3	InChI=1S/C7H12O2/c1-3-4-5(8)6(9)7(3,4)2/h3-6,8-9H,1-2H3/t3-,4-,5+,6+,7-/m0/s1
