16
gdb 125500	2.47202	1.46483	0.92706	5.6466	76.88	-0.2265	-0.0344	0.1921	1215.5132	0.124715	-434.10753	-434.098917	-434.097973	-434.14081	31.363	
C	-0.0144461764	 1.4714506847	-0.0494634574	-0.490412
C	 0.0048856855	-0.0204175331	 0.0333827114	 0.391987
N	 0.0381738294	-0.7499926698	-1.061758106	-0.302487
N	 0.040526604	-2.0532430875	-0.6150103327	-0.083069
C	-0.0364975095	-3.131133267	-1.4966347001	 0.180518
O	-0.0170439001	-3.0485892214	-2.6926710319	-0.270935
C	 0.0377858723	-2.1161625142	 0.7708823601	 0.442257
N	-0.0083787027	-3.3304287697	 1.4490235182	-0.605737
C	 0.007251672	-0.8233010207	 1.2170455976	-0.399411
H	 0.8492455025	 1.9071141472	 0.4647628178	 0.131839
H	 0.0047445076	 1.785634178	-1.0944234723	 0.150261
H	-0.913589148	 1.8801147365	 0.4245479748	 0.133286
H	-0.1309101709	-4.0831513837	-0.9451347348	 0.096047
H	 0.7186643628	-3.9854939145	 1.189293106	 0.261142
H	-0.0055927349	-3.1993515402	 2.4515107416	 0.262191
H	 0.0094662264	-0.4908158547	 2.2431225275	 0.102521
112.1424	133.3567	186.2751	192.6632	219.9973	246.5417	295.4944	404.9952	412.2012	576.0026	603.8299	649.3977	679.6748	700.6424	735.0793	788.4993	888.7291	980.2972	1025.7581	1035.4511	1063.3591	1094.9286	1161.2459	1190.738	1321.9462	1376.4614	1413.5539	1452.1803	1473.1692	1481.5513	1484.2759	1546.1734	1627.6402	1669.4635	1839.3962	2983.8003	3037.2317	3089.683	3141.4071	3254.856	3540.4236	3633.1642
CC1=NN(C=O)C(N)=C1	Cc1nn(C=O)c(N)c1	
InChI=1S/C5H7N3O/c1-4-2-5(6)8(3-9)7-4/h2-3H,6H2,1H3	InChI=1S/C5H7N3O/c1-4-2-5(6)8(3-9)7-4/h2-3H,6H2,1H3
