17
gdb 10200	3.52015	1.13507	0.90291	4.0326	65.68	-0.2749	0.0278	0.3026	1265.074	0.140469	-400.993795	-400.984372	-400.983428	-401.028625	31.885	
C	 0.0134039669	 1.3598176387	 0.0846652835	-0.232794
O	-0.0368999614	-0.0460441876	-0.0215653859	-0.229129
C	 0.6554533938	-0.5393336505	-1.1381547552	-0.063187
C	 0.5954503126	-2.0708767725	-1.0980664024	-0.174217
C	 1.1953912782	-2.7113378159	-2.3744126327	-0.069888
O	 1.1119990217	-4.115499608	-2.3650204992	-0.41507
C	 1.295108409	-2.6019056041	 0.07514463	 0.273589
N	 1.88993853	-3.0720635422	 0.9479283605	-0.329291
H	 1.0480095282	 1.7222403453	 0.1820449989	 0.113601
H	-0.4456383767	 1.8502343948	-0.7877190593	 0.108439
H	-0.5452081324	 1.6354212121	 0.9813615395	 0.138557
H	 0.1953891515	-0.1890289857	-2.0778683126	 0.097821
H	 1.7042841358	-0.1999554522	-1.1364915858	 0.104845
H	-0.455657748	-2.3715844018	-1.0242955542	 0.145826
H	 0.6141194202	-2.3721510456	-3.2370687976	 0.12362
H	 2.2299670944	-2.3591109623	-2.5048019638	 0.107075
H	 1.6665829963	-4.4448689424	-1.6479491236	 0.300203
70.2851	93.682	98.0427	142.7173	172.4368	228.4628	251.8788	335.5524	359.7189	391.0908	449.912	565.5699	641.3744	795.8857	931.6436	972.6838	1063.7575	1082.8387	1096.5114	1111.4158	1167.6782	1184.1251	1207.596	1229.5733	1255.3792	1275.6866	1370.2375	1394.1973	1414.9572	1427.8574	1481.4419	1487.2941	1500.9099	1506.0771	1528.1785	2353.979	2955.8862	2979.2504	2989.6372	2993.2295	3026.6	3063.5743	3088.8012	3126.6556	3794.3025
COCC(CO)C#N	COC[C@@H](CO)C#N	
InChI=1S/C5H9NO2/c1-8-4-5(2-6)3-7/h5,7H,3-4H2,1H3	InChI=1S/C5H9NO2/c1-8-4-5(2-6)3-7/h5,7H,3-4H2,1H3/t5-/m1/s1
