22
gdb 87400	2.15328	1.47145	1.11265	1.6434	82.99	-0.2316	0.0789	0.3105	1231.7595	0.191979	-404.309109	-404.299282	-404.298338	-404.343505	36.744	
C	-0.2905048532	 1.3613745744	-1.2827173173	-0.405732
C	 0.2399642128	-0.0001542375	-0.8766779223	 0.091274
O	 1.6273658721	-0.1860068929	-1.2511905034	-0.325048
C	 2.0138077488	-0.5967540263	 0.0877999123	 0.099353
C	 3.1957693417	 0.1853406278	 0.6216855164	-0.409166
C	 0.6067181083	-0.2755984074	 0.5883839717	 0.255858
C	 0.1447184333	 0.4222857073	 1.8128880223	-0.316613
N	-0.1071492854	-1.0070748064	 1.6084389327	-0.130126
C	-1.4814303413	-1.4008191745	 1.3286813076	-0.319818
H	 0.2857986554	 2.161902435	-0.8103964159	 0.1206
H	-0.2215646713	 1.4801349749	-2.3688972601	 0.12855
H	-1.3424584476	 1.4700688523	-0.9968860535	 0.114273
H	-0.3840920977	-0.794716729	-1.3139437111	 0.074288
H	 2.2207632789	-1.6763303116	 0.1166945091	 0.078094
H	 2.9809095594	 1.2579069666	 0.6350213016	 0.117227
H	 3.4394194559	-0.139121865	 1.6391646786	 0.120257
H	 4.0753121135	 0.0170389879	-0.0076054765	 0.127434
H	 0.8404129768	 0.6734017145	 2.6095789446	 0.116734
H	-0.6952505493	 1.1093913854	 1.7083072634	 0.107529
H	-2.0472194236	-0.6590832929	 0.7409190999	 0.10177
H	-1.4838088649	-2.3473871387	 0.7788089554	 0.126823
H	-2.0073784224	-1.5569545639	 2.2754207946	 0.126439
70.7912	133.6666	163.4007	191.7615	207.0255	226.7352	234.3694	277.7999	377.55	392.7379	449.6832	485.3469	528.554	575.2574	725.4868	828.568	851.9652	871.6513	905.7784	938.4108	1021.7312	1039.2974	1066.5944	1078.5811	1095.9694	1108.282	1112.3092	1151.9897	1155.5637	1178.3534	1206.384	1222.9641	1277.4957	1312.8128	1363.0215	1391.614	1399.8339	1412.081	1435.7954	1449.8063	1480.9771	1488.0031	1489.7518	1492.3979	1494.3506	1496.7895	1519.7593	2965.9869	2981.9356	2999.5982	3033.7773	3035.1428	3069.0957	3083.6871	3103.8328	3105.3886	3106.7221	3115.4128	3117.9421	3171.4472
CC1OC(C)C11CN1C	C[C@H]1O[C@@H](C)[C@]21CN2C	
InChI=1S/C7H13NO/c1-5-7(4-8(7)3)6(2)9-5/h5-6H,4H2,1-3H3	InChI=1S/C7H13NO/c1-5-7(4-8(7)3)6(2)9-5/h5-6H,4H2,1-3H3/t5-,6+,7-,8?
