16
gdb 73900	2.88091	1.22833	0.87506	3.1669	78.89	-0.2615	-0.0501	0.2114	1254.3743	0.123323	-400.811792	-400.803242	-400.802298	-400.845441	30.998	
C	-0.0030708006	 1.5086522875	 0.0754497285	-0.509147
C	 0.0118968288	 0.0185500361	 0.016206404	 0.226167
C	-0.0045746584	-0.7489637585	-1.0931425812	 0.101487
C	 0.0178536741	-2.2305857275	-0.7972193291	-0.430744
C	 0.0526195923	-2.2747440218	 0.7381488975	 0.395221
O	 0.0783453008	-3.2676755091	 1.4117245488	-0.290143
C	 0.0487031113	-0.829378697	 1.2589629313	-0.413865
C	-0.0394306962	-0.2468720358	-2.4221326352	 0.204612
N	-0.0677730574	 0.139107952	-3.5146457255	-0.342134
H	 0.8817336309	 1.8823257311	 0.6052706565	 0.142859
H	-0.0267434303	 1.9546194713	-0.9211599421	 0.157799
H	-0.87544744	 1.863206115	 0.6380959815	 0.142996
H	-0.8635220985	-2.7635590065	-1.1731766375	 0.156534
H	 0.8926816004	-2.744854708	-1.2124583892	 0.156534
H	 0.9371687297	-0.6447762554	 1.8772812783	 0.150913
H	-0.8150319569	-0.6636557533	 1.9164321834	 0.15091
61.3389	140.8891	146.3222	168.3084	244.4026	286.4303	422.8899	458.9413	475.3753	496.0806	542.3617	608.4506	620.5266	753.6198	799.049	821.4602	949.1683	951.2887	1050.1366	1056.1032	1137.979	1165.7251	1179.7387	1183.338	1222.2701	1286.3512	1347.2919	1415.7769	1431.6844	1446.65	1477.5351	1478.5807	1683.0751	1862.9395	2332.8974	3024.0669	3027.971	3041.5374	3054.884	3073.8248	3075.0573	3130.2746
CC1=C(CC(=O)C1)C#N	CC1=C(CC(=O)C1)C#N	
InChI=1S/C7H7NO/c1-5-2-7(9)3-6(5)4-8/h2-3H2,1H3	InChI=1S/C7H7NO/c1-5-2-7(9)3-6(5)4-8/h2-3H2,1H3
