19
gdb 38700	2.75233	2.0799	1.56408	1.4928	79.2	-0.2186	0.0153	0.2338	912.7278	0.162084	-385.87179	-385.865143	-385.864199	-385.90233	28.533	
C	 0.0182309573	 1.4929865522	-0.0546362099	-0.383601
C	 1.3841848526	 0.8273673213	 0.0210437791	-0.059859
C	 2.1577175923	 0.2075736599	-1.1479113256	-0.24764
C	 1.3581917765	-1.1080799955	-1.3443520273	 0.081811
C	 1.6157102323	-2.2094751595	-0.2594179692	-0.289993
C	 0.7112025087	-2.0876624702	 0.9581433263	-0.05088
C	-0.0341618538	-0.9975081426	 1.1655179957	-0.157829
C	 0.0996083045	 0.0100009496	 0.0833569251	 0.380839
O	 0.0225013829	-0.6301347613	-1.1889126	-0.283421
H	-0.2614707161	 2.0984659315	 0.8027425049	 0.115118
H	-0.3584030533	 1.8496823067	-1.007486727	 0.123764
H	 1.9227432678	 0.9804376243	 0.9489191082	 0.093117
H	 2.1164843475	 0.8014871839	-2.0670990484	 0.10411
H	 3.2098891826	 0.0520278515	-0.8912318869	 0.096725
H	 1.4542280826	-1.5305554289	-2.3489989085	 0.073132
H	 1.4677636081	-3.2010645762	-0.7057195725	 0.111986
H	 2.668934761	-2.1837274481	 0.0528537226	 0.10886
H	 0.6769815748	-2.9367840404	 1.6349408444	 0.090821
H	-0.6898365284	-0.870762808	 2.0202087692	 0.09294
155.9227	275.7744	337.697	388.2485	453.1976	474.1467	522.9227	625.1498	666.1376	699.2923	768.8716	779.8549	811.4067	858.0497	882.3282	892.3185	910.267	948.1169	958.0264	982.7872	1011.8525	1028.5483	1042.3851	1087.0287	1101.5696	1107.8498	1154.0539	1190.4591	1204.2621	1221.9496	1279.2923	1282.5558	1327.4054	1330.2398	1356.5255	1371.0149	1423.5452	1466.3488	1475.5363	1490.1159	1675.0716	3013.5611	3040.1078	3044.6037	3073.2079	3094.1515	3121.5212	3161.9842	3175.7105	3190.1947	3213.6938
C1C2CC3CC=CC12O3	C1[C@@H]2C[C@H]3CC=C[C@@]12O3	
InChI=1S/C8H10O/c1-2-7-4-6-5-8(6,3-1)9-7/h1,3,6-7H,2,4-5H2	InChI=1S/C8H10O/c1-2-7-4-6-5-8(6,3-1)9-7/h1,3,6-7H,2,4-5H2/t6-,7+,8+/m0/s1
