21
gdb 59200	2.78305	1.08664	1.04326	2.4093	79.02	-0.2533	0.0766	0.3299	1288.2895	0.181901	-424.166802	-424.157694	-424.15675	-424.200588	35.303	
C	 0.0870802086	 1.5069113564	 0.1097326144	-0.397857
C	 0.0895779517	-0.0238923405	 0.1181353656	 0.073863
O	 0.7220128835	-0.5334036494	 1.2943648977	-0.431605
C	-1.321242415	-0.5867125702	-0.0009410482	 0.05521
C	-2.1076271902	-0.629429017	-1.3546015529	-0.130582
C	-1.2181958802	-1.8294962761	-1.7852617285	-0.243027
C	-1.5755776968	-2.1035400646	-0.2950809923	-0.08994
C	-3.0222307308	-1.7103446189	-0.682852037	 0.147975
O	-3.8721806946	-1.3651549563	 0.3810781312	-0.440171
H	 1.1008622802	 1.8875327005	 0.260729036	 0.120952
H	-0.2957359124	 1.8977456438	-0.8389877264	 0.114472
H	-0.5495865397	 1.8982116213	 0.9131034652	 0.104682
H	 0.7290847626	-0.376291986	-0.6964834068	 0.083356
H	 0.1679433183	-0.2952726762	 2.046477199	 0.274613
H	-1.9250918735	-0.2061714851	 0.8297518315	 0.071844
H	-2.4236189507	 0.2154511627	-1.9703395195	 0.064159
H	-1.6472965546	-2.5149859911	-2.5224625877	 0.089214
H	-0.1753180397	-1.6213780616	-2.0168295045	 0.10589
H	-1.270059542	-2.9536005252	 0.31483124	 0.078411
H	-3.5196154193	-2.3921442879	-1.385642554	 0.06366
H	-4.6694838452	-0.9732315686	 0.0119688973	 0.28488
58.9632	141.5333	172.7519	242.0158	267.7652	281.8594	302.0739	361.375	389.1507	454.6652	480.132	539.3625	619.8662	763.9289	839.9349	847.8796	883.7403	898.1205	905.4071	911.319	999.0378	1019.1803	1033.3275	1058.7193	1073.9063	1090.195	1107.2452	1124.5124	1157.1827	1176.6643	1187.0479	1211.7569	1219.4836	1236.8826	1261.3086	1275.3515	1316.1544	1341.559	1399.9187	1418.8457	1427.5172	1442.497	1490.7474	1495.3307	1524.0096	3012.2233	3024.3373	3050.4281	3057.4129	3068.4207	3088.3179	3095.365	3116.7901	3117.6733	3147.668	3793.1308	3823.4238
CC(O)C1C2CC1C2O	C[C@@H](O)[C@H]1[C@H]2C[C@@H]1[C@H]2O	
InChI=1S/C7H12O2/c1-3(8)6-4-2-5(6)7(4)9/h3-9H,2H2,1H3	InChI=1S/C7H12O2/c1-3(8)6-4-2-5(6)7(4)9/h3-9H,2H2,1H3/t3-,4-,5+,6+,7+/m1/s1
