20
gdb 40700	3.59336	0.9903	0.90416	1.5682	79.91	-0.2331	0.067	0.3001	1358.8481	0.173258	-399.239874	-399.231379	-399.230435	-399.273817	31.97	
C	-0.3276581579	 1.3773602793	-0.1260664828	-0.243516
N	 1.0657851685	 0.9249547203	 0.0145371469	-0.321977
C	-0.019733816	-0.071723916	-0.019455183	-0.010872
C	-0.2294215357	-0.8162441273	 1.2595992339	-0.001881
N	-1.3906237343	-1.7231936741	 1.3391695405	-0.360748
C	-0.0335210667	-2.2872158387	 1.3989515986	-0.052661
C	 0.359158526	-3.1732512702	 0.2511462682	-0.005503
C	-0.4207111464	-4.4046346005	-0.0283887078	-0.240433
N	-0.5005797552	-3.2482672985	-0.9381398896	-0.320268
H	-0.7200310036	 1.9127549013	 0.7347923482	 0.114269
H	-0.6665985995	 1.7576573495	-1.0860229178	 0.114172
H	 1.5382267334	 0.9562920449	-0.8845126927	 0.235569
H	-0.1340518183	-0.6636191023	-0.9229619576	 0.112749
H	-0.0006828228	-0.2185835564	 2.1405070502	 0.091144
H	-1.8204161886	-1.6895372747	 2.258142069	 0.236956
H	 0.3297409712	-2.6240570881	 2.369475184	 0.088998
H	 1.4250817393	-3.1763845238	 0.0305401489	 0.095108
H	 0.0710808021	-5.2836465454	-0.435281523	 0.114619
H	-1.2773944235	-4.6105064982	 0.6086643241	 0.110908
H	-1.356936022	-2.7402976311	-0.7134337681	 0.243368
53.4187	100.5215	119.0335	199.5975	264.0838	293.9975	329.059	465.3385	551.0435	630.8936	740.2233	813.2907	855.622	866.6664	873.4976	888.573	921.6017	931.7953	960.0953	973.1106	999.1368	1008.7439	1043.3611	1072.6779	1112.0596	1117.8335	1135.0434	1150.5797	1172.2947	1192.2266	1206.5623	1250.633	1252.9368	1278.468	1288.5289	1297.8936	1320.805	1358.6315	1396.0449	1440.7065	1495.1325	1506.6873	1521.5926	3105.8486	3106.1332	3106.8147	3123.5201	3126.5259	3157.5648	3190.4281	3193.2663	3457.533	3511.1299	3522.499
C1NC1C1NC1C1CN1	C1N[C@H]1[C@H]1N[C@H]1[C@H]1CN1	
InChI=1S/C6H11N3/c1-3(7-1)5-6(9-5)4-2-8-4/h3-9H,1-2H2	InChI=1S/C6H11N3/c1-3(7-1)5-6(9-5)4-2-8-4/h3-9H,1-2H2/t3-,4-,5-,6+/m1/s1
