17
gdb 37900	3.09777	2.14796	1.71092	1.4865	70.19	-0.2354	0.063	0.2984	823.4262	0.138684	-421.737229	-421.73139	-421.730445	-421.767062	25.385	
C	-0.0723566467	 1.4707766655	 0.0109948332	-0.188043
O	 1.3109316563	 1.9158005956	 0.0153003406	-0.30172
C	 2.2193620975	 0.7685699257	-0.0916590711	 0.073104
C	 2.2296861118	 0.0104849453	 1.2552342602	-0.254998
C	 0.9444522949	-0.7844509346	 1.022184711	-0.071964
C	 0.9996603042	-1.5512221361	-0.3138124126	-0.003117
O	-0.4546912946	-1.2421754774	-0.579818578	-0.381593
C	 0.1583217209	-0.0141057637	-0.087726972	 0.401438
C	 1.4249946256	-0.2014809238	-0.9529103508	-0.070208
H	-0.5615987955	 1.7967798874	 0.9350309255	 0.112116
H	-0.6028355692	 1.8917594903	-0.8513514091	 0.117329
H	 3.1695151928	 1.1676644763	-0.4432598047	 0.08059
H	 3.1145921407	-0.6217544697	 1.3872396902	 0.101138
H	 2.1657177492	 0.7058856859	 2.0956463828	 0.11399
H	 0.3835825847	-1.2238436589	 1.8447645305	 0.083452
H	 1.3130307363	-2.5702112718	-0.5409285541	 0.097341
H	 1.3317010511	-0.0555327259	-2.0265443416	 0.091145
228.6359	351.3217	409.3899	437.5434	504.8567	584.1647	678.8372	706.5544	719.5487	788.0864	823.6234	847.4987	892.8678	904.9028	932.5447	955.5366	974.7642	981.9963	998.378	1018.6424	1045.0915	1064.6176	1118.2915	1136.2556	1172.3778	1190.6352	1206.154	1227.8777	1246.5376	1262.4596	1268.166	1321.399	1326.9955	1355.2785	1386.6693	1487.7315	1520.7396	3026.104	3046.1755	3072.4441	3106.5203	3115.8877	3129.9614	3145.8554	3155.4765
C1OC2CC3C4OC13C24	C1O[C@H]2C[C@@H]3[C@H]4O[C@@]13[C@@H]24	
InChI=1S/C7H8O2/c1-3-6-5-4(1)8-2-7(3,5)9-6/h3-6H,1-2H2	InChI=1S/C7H8O2/c1-3-6-5-4(1)8-2-7(3,5)9-6/h3-6H,1-2H2/t3-,4+,5+,6-,7+/m1/s1
