15
gdb 131200	3.26385	1.5293	1.07409	13.2123	71.95	-0.1642	-0.0195	0.1447	1048.5325	0.115955	-453.885937	-453.878999	-453.878055	-453.917504	26.575	
O	 0.0805854535	 0.0414849515	 0.07223323	-0.422727
C	-0.0625652305	 1.2446044254	 0.0446848909	 0.352471
C	-1.1666496095	 2.140247812	-0.0196182577	-0.034243
C	-2.6351692709	 2.1659185658	-0.0224534051	-0.353807
N	-2.8674108351	 3.6205195493	 0.5069497464	-0.266045
H	-3.7679266381	 4.0122911812	 0.2226238149	 0.29262
H	-2.8375180348	 3.5802364187	 1.5257212798	 0.313653
C	-1.6789232004	 4.4722187438	 0.0312988224	-0.318986
C	-0.6151847527	 3.4220188167	 0.0027352872	 0.375215
N	 0.6843788343	 3.4847605844	 0.0746789702	-0.295478
O	 1.0615523591	 2.1170708117	 0.0714501174	-0.25759
H	-3.149439936	 2.1477797437	-0.9985015315	 0.134651
H	-3.1597747895	 1.4776519711	 0.6490765736	 0.154061
H	-1.9507287406	 4.8686168503	-0.9526642709	 0.161485
H	-1.5328384987	 5.2987882643	 0.7292475225	 0.164719
114.6433	172.8171	226.8467	295.6663	349.1683	541.3044	581.3519	600.3176	635.5668	702.878	720.7242	737.2357	783.8491	846.208	871.0017	901.8781	974.6267	1023.6211	1050.822	1088.3813	1119.8268	1213.4968	1239.8465	1317.2421	1346.3588	1353.8261	1415.7797	1476.0942	1493.4584	1515.8711	1609.3949	1620.0296	1829.3939	2946.0717	3056.5693	3059.4427	3125.6609	3425.4136	3515.7761
[O-]C1=C2C[NH2+]CC2=NO1	O=C1[C]2C[NH2]CC2=NO1	
InChI=1S/C5H6N2O2/c8-5-3-1-6-2-4(3)7-9-5/h6,8H,1-2H2	InChI=1S/C5H6N2O2/c8-5-3-1-6-2-4(3)7-9-5/h1-2,6H2
