17
gdb 25600	3.83742	0.99201	0.82642	2.4646	76.12	-0.1854	-0.0215	0.1639	1344.057	0.136579	-418.034216	-418.025692	-418.024747	-418.068252	31.446	
O	 0.8514181918	 1.1913119817	 1.3170253752	-0.246498
C	 0.5748010752	 1.7915029869	 0.3115813508	 0.176292
C	 1.1558720555	 1.4772423295	-1.0627455673	-0.260265
N	 1.2228398308	 2.6677187112	-1.8821950099	-0.395519
C	 2.2675747449	 3.5656570312	-1.600410681	 0.29375
C	 3.0966748092	 3.5613306185	-0.4941801217	-0.166633
N	 3.9274168866	 4.658722657	-0.6025369257	-0.249098
C	 3.6516902333	 5.3413177476	-1.7519637982	-0.057508
C	 2.6226795802	 4.6944390688	-2.3965792794	-0.261102
H	-0.1616413093	 2.6262310205	 0.2979340857	 0.090125
H	 2.1191459979	 0.9593484375	-0.9246400896	 0.115605
H	 0.462198054	 0.7682305667	-1.5333753809	 0.126958
H	 1.1398055095	 2.4729897273	-2.8695913865	 0.235948
H	 3.1608419018	 2.8935624481	 0.3476364598	 0.130245
H	 4.6321721509	 4.9096578798	 0.0666936549	 0.261684
H	 4.2012288982	 6.2290883979	-2.0205394657	 0.118723
H	 2.1644916295	 4.9920992398	-3.3273750604	 0.087293
59.3467	67.2711	124.9766	213.834	278.2168	355.1044	411.3201	416.1873	546.1625	601.2231	626.4218	639.694	678.6077	704.0211	750.6066	780.573	806.5768	901.6792	971.9549	1040.1693	1080.4458	1088.8255	1110.7974	1129.3208	1173.7416	1240.3166	1281.5606	1315.8493	1334.929	1395.1622	1408.5516	1455.2837	1476.5489	1490.2859	1541.3335	1626.2531	1835.3181	2890.4083	2973.3527	3051.4972	3243.9767	3269.4605	3281.9967	3584.6801	3697.5727
O=CCNC1=CNC=C1	O=CCNc1c[nH]cc1	
InChI=1S/C6H8N2O/c9-4-3-8-6-1-2-7-5-6/h1-2,4-5,7-8H,3H2	InChI=1S/C6H8N2O/c9-4-3-8-6-1-2-7-5-6/h1-2,4-5,7-8H,3H2
