22
gdb 117700	3.71636	0.77464	0.75099	3.2019	79.52	-0.2464	0.031	0.2774	1590.4022	0.191702	-441.510527	-441.499478	-441.498533	-441.546609	39.91	
C	 0.0497681763	 1.6235918315	 0.0986115352	-0.411857
C	 0.0353576574	 0.0834333797	 0.1273539203	 0.267413
C	 0.8215631641	-0.4405465758	 1.3440708972	-0.411875
C	-1.4051414759	-0.4707638921	 0.1017268968	-0.21184
C	-2.2974113051	-0.0947353263	 1.2797792926	-0.094273
O	-3.5582483701	-0.7062886359	 1.0427929051	-0.420219
N	 0.6626595322	-0.4297646522	-1.1120628673	-0.300459
C	 1.9346701874	-0.2021079292	-1.5230990517	 0.160717
O	 2.7722183766	 0.4606675224	-0.9423717243	-0.337442
H	 1.0746230172	 1.9816820215	-0.0091218704	 0.15644
H	-0.5423813732	 1.9999646692	-0.7416947714	 0.108541
H	-0.3637766964	 2.0360685421	 1.0233547087	 0.111228
H	 0.4124346713	-0.0400642283	 2.2760256606	 0.111226
H	 0.77869993	-1.5334465447	 1.3903988239	 0.108549
H	 1.8662839918	-0.1356252865	 1.2684032179	 0.156462
H	-1.9035341523	-0.1276394792	-0.8139762168	 0.106493
H	-1.3652418212	-1.5664979812	 0.0526731752	 0.106471
H	-1.85827054	-0.4505581985	 2.2233756302	 0.094262
H	-2.397285531	 0.9982188809	 1.352724916	 0.094248
H	-4.1411440263	-0.4841056483	 1.7745349125	 0.287625
H	 0.0920842243	-1.0039672198	-1.7128923877	 0.24346
H	 2.1412948329	-0.7072783692	-2.4896589123	 0.074829
74.4184	75.0759	120.972	134.9811	206.7854	237.2385	256.4367	268.9477	272.4337	312.0703	337.0997	345.9728	423.8923	438.7453	507.3533	536.3006	740.2705	807.1804	829.3237	897.0423	932.489	990.3987	1007.0593	1030.0919	1040.3281	1065.4878	1075.2292	1179.5866	1204.8791	1215.0279	1256.052	1270.2367	1278.9882	1334.229	1351.0674	1393.4092	1415.1165	1435.805	1462.1556	1476.8981	1488.4763	1492.3961	1503.239	1522.3395	1529.0563	1531.2526	1795.0579	2913.9196	2984.6645	3012.4692	3019.4494	3040.5746	3045.7235	3065.7255	3107.5194	3112.2045	3144.0823	3147.4021	3624.0063	3830.9202
CC(C)(CCO)NC=O	CC(C)(CCO)NC=O	
InChI=1S/C6H13NO2/c1-6(2,3-4-8)7-5-9/h5,8H,3-4H2,1-2H3,(H,7,9)	InChI=1S/C6H13NO2/c1-6(2,3-4-8)7-5-9/h5,8H,3-4H2,1-2H3,(H,7,9)
