18
gdb 46800	2.74154	1.69517	1.29293	2.4151	71.07	-0.2193	-0.0293	0.1899	997.7135	0.149048	-439.054399	-439.047001	-439.046056	-439.086399	29.111	
O	 0.0092579188	 0.0445000256	 0.7072079381	-0.28632
C	-0.0307652401	 1.1158665809	 0.1495932839	 0.332175
C	-1.402130343	 1.7691460084	-0.13250639	-0.171433
O	-1.668546249	 2.2920995623	-1.4207260025	-0.260789
C	-0.7020312792	 3.1235722178	-2.0318661655	 0.124245
C	 0.5821803352	 2.367022611	-2.4505593905	-0.200393
N	 1.286255528	 2.8641733279	-1.2222221963	-0.103015
C	 0.2274906471	 3.914812935	-1.0797883224	-0.217024
C	 1.2790297064	 1.8807118643	-0.1510265548	-0.282818
H	-2.1552940343	 0.9989982945	 0.0432978844	 0.138206
H	-1.5353200034	 2.5465210809	 0.6403678533	 0.111576
H	-1.2392350284	 3.6807857603	-2.8034938809	 0.090488
H	 0.4937985121	 1.2797423666	-2.53862808	 0.118139
H	 1.0508540497	 2.7650078279	-3.3562525631	 0.111834
H	 0.5652323704	 4.8564650272	-1.5239488953	 0.114412
H	-0.1135471698	 4.1163069992	-0.0609924388	 0.110054
H	 1.5664629414	 2.3778502538	 0.7860556319	 0.132909
H	 2.042911468	 1.1205003763	-0.3426928815	 0.137753
66.7569	174.6745	300.7101	325.4768	350.0483	423.4042	443.1214	460.4674	505.4387	605.8247	779.6141	786.8799	814.6471	816.7576	853.4541	914.5434	958.836	979.7663	1006.7339	1069.1234	1088.7158	1108.8979	1128.5589	1175.627	1216.8791	1244.7857	1270.9232	1274.4531	1288.2701	1297.2229	1316.3069	1331.4369	1369.4619	1392.9567	1445.5623	1473.0559	1491.6402	1512.7139	1803.5087	2955.1029	3020.8129	3041.4073	3051.0696	3081.2873	3085.7935	3099.5566	3103.5834	3118.6415
O=C1COC2CN(C2)C1	O=C1CO[C@@H]2CN(C2)C1	
InChI=1S/C6H9NO2/c8-5-1-7-2-6(3-7)9-4-5/h6H,1-4H2	InChI=1S/C6H9NO2/c8-5-1-7-2-6(3-7)9-4-5/h6H,1-4H2
