15
gdb 5900	3.0697	1.2377	1.07546	4.1247	70.54	-0.2759	-0.0008	0.275	1161.0612	0.115399	-362.646537	-362.63697	-362.636026	-362.681896	32.647	
C	 0.004284305	 1.4842136501	 0.0046719466	-0.500511
C	 0.0047002245	 0.029617973	-0.004558374	 0.034705
C	 0.004122397	-1.1739873708	-0.0066793903	 0.109175
C	 0.0158117844	-2.642186723	-0.0406280935	 0.021037
C	-1.4045482716	-3.2240589748	 0.0578714411	-0.389014
O	 0.559852321	-3.1383443082	-1.2586317482	-0.415476
C	 0.8336260616	-3.1386638842	 1.1028697063	 0.273271
N	 1.4798205943	-3.5362144884	 1.9742823122	-0.339585
H	 0.8211616551	 1.8746684455	 0.6204784797	 0.161126
H	 0.1255620085	 1.8834575201	-1.0078675664	 0.158329
H	-0.9364892122	 1.8742153161	 0.4071702825	 0.15936
H	-1.9891961885	-2.851708066	-0.7852794231	 0.142729
H	-1.3514663736	-4.3137741592	 0.0105453674	 0.146064
H	-1.8782836365	-2.9211922328	 0.9930133909	 0.14309
H	 1.4028416811	-2.6950523474	-1.4103408312	 0.295699
23.0411	85.0174	112.8799	184.3645	210.9913	248.2393	306.3037	313.1338	350.4925	379.9754	471.2884	514.4971	544.4149	611.1376	661.6644	864.5043	937.9339	1026.0178	1051.2293	1052.3584	1088.8844	1161.6241	1233.0562	1365.3449	1402.3171	1412.9435	1474.0118	1475.6062	1479.6056	1485.872	2353.4847	2371.3027	3033.9835	3062.0999	3098.3038	3099.5718	3149.311	3154.7655	3802.8758
CC#CC(C)(O)C#N	CC#C[C@@](C)(O)C#N	
InChI=1S/C6H7NO/c1-3-4-6(2,8)5-7/h8H,1-2H3	InChI=1S/C6H7NO/c1-3-4-6(2,8)5-7/h8H,1-2H3/t6-/m1/s1
