20
gdb 118600	1.92787	1.00304	0.68723	3.1128	84.73	-0.2654	0.0171	0.2825	1663.0327	0.167655	-403.114413	-403.103676	-403.102732	-403.151406	37.447	
C	-0.0202109967	 1.6183557728	 0.002982204	-0.387394
C	 0.0105408963	 0.0879702845	 0.0181242822	-0.177596
C	 0.6708318602	-0.4948293578	-1.235310873	-0.180035
C	 0.7131531649	-2.0275553606	-1.2387909857	-0.102681
O	-0.6519125449	-2.4835595161	-1.2329131697	-0.185553
C	-0.8511212974	-3.7913919774	-0.9623605098	 0.134289
N	-2.0249384872	-4.2520919328	-0.93685237	-0.441098
C	 1.4455489018	-2.5580722334	-2.3903255017	 0.338663
C	 2.0493365989	-2.9874202723	-3.3363201799	-0.442037
H	 0.9905404758	 2.03763691	-0.0549909604	 0.113283
H	-0.5840173781	 1.9939729734	-0.857859655	 0.119995
H	-0.4933247321	 2.0125964024	 0.9073052122	 0.116391
H	 0.5531009054	-0.2601310166	 0.9075746437	 0.09228
H	-1.007012602	-0.3063595	 0.1016811813	 0.128444
H	 0.1380629634	-0.1696740309	-2.1359795387	 0.12309
H	 1.7016913748	-0.1342674466	-1.3277326888	 0.110801
H	 1.2020170452	-2.3732391978	-0.3153893906	 0.108819
H	 0.0758638213	-4.3507198159	-0.7814039643	 0.095348
H	-2.0023418333	-5.2447130892	-0.7122580579	 0.229638
H	 2.5801220237	-3.3695768357	-4.173463468	 0.205348
60.161	76.525	83.2245	96.4142	114.574	195.8331	235.7671	251.7931	282.1265	323.2079	446.9058	503.3813	562.4612	634.2821	648.1817	679.9279	752.6539	819.1176	856.0481	906.2193	934.6072	996.1383	1038.7483	1042.2968	1061.7926	1110.1508	1130.4396	1159.8015	1257.1066	1283.1514	1296.6317	1327.7288	1354.3518	1357.6908	1397.7966	1414.7447	1427.5459	1475.2796	1494.4461	1499.9941	1511.0676	1746.6963	2236.4865	2989.7995	3019.237	3030.6351	3037.2813	3042.8244	3072.5953	3087.7966	3104.1665	3106.2113	3501.0762	3516.9532
CCCC(OC=N)C#C	CCC[C@@H](O[CH][NH])C#C	
InChI=1S/C7H11NO/c1-3-5-7(4-2)9-6-8/h2,6-8H,3,5H2,1H3	InChI=1S/C7H11NO/c1-3-5-7(4-2)9-6-8/h2,6-8H,3,5H2,1H3/t7-/m0/s1
