13
gdb 14600	9.23973	0.68308	0.67919	3.2393	77.97	-0.2501	-0.0284	0.2217	1568.1846	0.093698	-361.428938	-361.420424	-361.419479	-361.463186	29.148	
O	 0.1369930486	 0.3871584026	-1.1618386815	-0.315884
C	 0.0861600281	 1.3277031783	-0.3995060584	 0.163571
N	 1.11125329	 1.7458573547	 0.3933625878	-0.270005
C	 2.4287878158	 1.1236967213	 0.3370942492	-0.319341
C	 3.4964576373	 2.0942431065	 0.1374970897	 0.395849
C	 4.3826838512	 2.9055793649	-0.0038734722	-0.283801
C	 5.3778561888	 3.8189047189	-0.167407139	 0.294044
C	 6.2609477829	 4.6294663258	-0.3113663605	-0.539462
H	-0.818777162	 1.9497909417	-0.2601518293	 0.086227
H	 0.9909211383	 2.5708526132	 0.9589537122	 0.258384
H	 2.6231968938	 0.5458764429	 1.2513021234	 0.148849
H	 2.3865955378	 0.4072446595	-0.490664144	 0.185075
H	 7.0378801094	 5.3416824698	-0.4403408174	 0.196493
28.1171	83.0181	141.3839	206.0348	256.9182	286.5325	338.1401	472.3163	519.861	533.7654	547.364	592.4897	609.952	703.1581	807.9635	966.5196	1031.5361	1038.6335	1177.9749	1201.1694	1255.3556	1370.186	1425.009	1477.8009	1517.557	1805.3051	2184.1266	2366.5503	2951.1711	3009.6223	3077.0133	3504.3778	3641.7798
O=CNCC#CC#C	O=CNCC#CC#C	
InChI=1S/C6H5NO/c1-2-3-4-5-7-6-8/h1,6H,5H2,(H,7,8)	InChI=1S/C6H5NO/c1-2-3-4-5-7-6-8/h1,6H,5H2,(H,7,8)
