15
gdb 49500	2.16454	1.56455	1.08356	3.3558	67.48	-0.2546	-0.0621	0.1925	1096.4779	0.109553	-457.693982	-457.685768	-457.684824	-457.728084	29.091	
O	-0.0530275164	-0.0609994728	-0.4147092883	-0.243373
C	-0.056949194	 1.082862253	-0.0359387218	 0.136342
C	 1.1963456247	 1.9146737373	 0.0224732605	-0.106417
C	 1.2885029729	 3.3506089356	-0.5917735713	 0.029284
C	 0.3651955796	 3.9197237058	 0.5066964338	-0.273114
C	 1.4316130612	 2.9780822278	 1.1445313717	 0.30749
O	 2.4515355869	 3.6166720817	 0.2875489931	-0.332426
C	 1.7300214173	 2.7443990544	 2.5923174138	 0.036439
O	 1.0609927186	 2.0165252097	 3.2784229581	-0.238619
H	-1.0006935298	 1.5709360707	 0.2859417582	 0.086644
H	 2.0747543204	 1.3030962067	-0.1857146533	 0.116534
H	 1.3815111784	 3.6252772878	-1.6413556728	 0.120725
H	 0.5198001717	 4.97606733	 0.7247568145	 0.128428
H	-0.6835990567	 3.6242508245	 0.5388030866	 0.123066
H	 2.6072657853	 3.3049666279	 2.980171887	 0.108998
52.837	56.3876	131.1236	235.5002	253.574	300.1424	420.3821	456.8103	532.3717	614.7195	664.0238	755.8568	784.2191	898.7847	916.511	951.9181	995.5477	1011.8702	1044.1395	1061.8653	1100.4485	1121.8582	1157.0003	1202.556	1216.3298	1228.5667	1263.8778	1331.9307	1398.3541	1445.7293	1497.8331	1815.898	1826.5802	2905.9259	2911.917	3090.8986	3126.3242	3137.3482	3170.3185
O=CC1C2CC1(O2)C=O	O=C[C@H]1[C@H]2C[C@@]1(O2)C=O	
InChI=1S/C6H6O3/c7-2-4-5-1-6(4,3-8)9-5/h2-5H,1H2	InChI=1S/C6H6O3/c7-2-4-5-1-6(4,3-8)9-5/h2-5H,1H2/t4-,5+,6+/m0/s1
