18
gdb 84600	2.55589	1.5811	1.21898	1.0246	83.98	-0.2286	0.0047	0.2333	1076.6167	0.147462	-364.763522	-364.75528	-364.754336	-364.795915	32.495	
C	-0.1072285529	 1.5505767167	 0.0725457075	-0.399944
C	 0.0162523413	 0.024373104	-0.021684411	-0.090362
C	 0.8458743083	-0.4664459749	-1.1940201853	-0.086197
C	 1.8391681575	-1.279069	-0.8303059423	-0.059504
C	 1.884995787	-1.4236772651	 0.6534770101	-0.144509
N	 2.1440248197	-0.1337749696	 1.3408516284	-0.367447
C	 0.7393224098	-0.6100097227	 1.1824305769	 0.158033
C	-0.0049248583	-0.9789106932	 2.3463390545	 0.190955
C	-0.6492440225	-1.2592205664	 3.3237492553	-0.389576
H	 0.8799681235	 2.0004627975	 0.2020499546	 0.140542
H	-0.5642000859	 1.9618454625	-0.8330820466	 0.109941
H	-0.7335933225	 1.8341079887	 0.9241888296	 0.120897
H	-0.9935364306	-0.4049146807	-0.0808650892	 0.089167
H	 0.6369232587	-0.1466650341	-2.2093155118	 0.09903
H	 2.5534126353	-1.7518145915	-1.4933144458	 0.102941
H	 2.2018846856	-2.3434431773	 1.1329094236	 0.102476
H	 2.421186588	-0.3243417739	 2.3033883499	 0.234197
H	-1.2139546621	-1.51626842	 4.1853519315	 0.189363
109.8357	149.6982	199.5548	232.3493	260.231	381.6902	410.5533	498.5416	531.3693	565.6817	584.3267	605.1407	660.6096	697.075	762.3401	787.7046	857.6417	875.2062	906.9616	943.3699	961.2682	1023.4547	1042.9083	1060.3515	1096.3251	1118.0949	1134.0842	1174.0939	1256.9914	1261.2369	1315.0585	1346.3699	1364.4766	1404.0949	1412.4307	1492.8855	1505.7416	1668.4024	2231.8738	3010.4173	3039.541	3104.605	3129.9957	3174.6695	3186.6685	3214.8863	3474.6818	3502.7178
CC1C=CC2NC12C#C	C[C@H]1C=C[C@H]2N[C@@]12C#C	
InChI=1S/C8H9N/c1-3-8-6(2)4-5-7(8)9-8/h1,4-7,9H,2H3	InChI=1S/C8H9N/c1-3-8-6(2)4-5-7(8)9-8/h1,4-7,9H,2H3/t6-,7+,8-/m0/s1
