22
gdb 22500	3.05045	0.65145	0.58286	1.4604	82.73	-0.2397	0.0148	0.2545	1950.1151	0.191487	-441.446413	-441.435121	-441.434177	-441.484035	39.644	
C	-1.4896301736	 0.4951249472	-0.4299209695	-0.375267
C	-0.0905092649	 0.0156674996	 0.0014622037	-0.264163
C	 0.6757643848	-0.5914305807	-1.1491771289	 0.359299
C	 0.7230689174	-2.0905536083	-1.3077644185	-0.281731
C	 1.6205258544	-2.7806634693	-0.2661343652	-0.168065
C	 1.6206877477	-4.2965663444	-0.4155724911	-0.072209
O	 2.4598039462	-4.8335688656	 0.595082519	-0.421426
N	 1.2915587543	 0.0823870139	-2.0451227161	-0.176677
O	 1.1963903048	 1.470411266	-1.8213705345	-0.402278
H	-1.4058454355	 1.2658006566	-1.1992893301	 0.140946
H	-2.0864366354	-0.3291038187	-0.8340001715	 0.114637
H	-2.0313330207	 0.9145492931	 0.4231909965	 0.114032
H	 0.4739230389	 0.8650282073	 0.3963323736	 0.128441
H	-0.1852692707	-0.7227167039	 0.8038598291	 0.098855
H	-0.2989465783	-2.4878148615	-1.2260143724	 0.101647
H	 1.082350801	-2.3182688433	-2.3159620396	 0.115884
H	 2.6481866403	-2.4144404219	-0.3654746278	 0.118041
H	 1.2953645666	-2.5369384962	 0.7519080279	 0.110565
H	 0.590069089	-4.6787759782	-0.32347334	 0.082441
H	 1.9792278555	-4.5710041386	-1.4212641594	 0.086945
H	 2.4826907097	-5.7891928616	 0.4912996334	 0.285605
H	 1.7145510686	 1.8246929686	-2.5511263987	 0.304477
48.5992	63.9505	78.8643	103.9375	138.5264	219.7974	225.5368	257.8998	268.5003	311.1338	334.3615	371.6815	413.3385	467.6148	607.7152	698.895	759.5243	778.6547	805.5212	871.5939	972.1339	985.1926	1019.2919	1031.1451	1057.0287	1079.839	1093.5044	1129.9799	1208.7346	1230.7318	1247.7389	1290.7557	1300.564	1306.6694	1315.6961	1353.4072	1370.8843	1402.0862	1410.8837	1462.8107	1474.6813	1483.3685	1497.8864	1499.2191	1510.0575	1527.5444	1727.1376	2955.3814	2982.1018	3007.1873	3040.0843	3040.6496	3051.6639	3075.3664	3092.715	3095.5236	3108.7672	3133.0464	3825.6816	3830.301
CCC(CCCO)=NO	CCC(=NO)CCCO	
InChI=1S/C6H13NO2/c1-2-6(7-9)4-3-5-8/h8-9H,2-5H2,1H3	InChI=1S/C6H13NO2/c1-2-6(7-9)4-3-5-8/h8-9H,2-5H2,1H3
