14
gdb 44700	3.4825	1.39873	1.18033	4.3058	62.98	-0.2794	-0.0069	0.2726	1010.6737	0.102151	-473.859473	-473.852605	-473.851661	-473.891361	25.861	
N	 0.0142349544	 1.0689906552	 0.4850300172	-0.527487
C	-0.0098908027	-0.1084795392	 0.0702654488	 0.423969
O	 1.0005359212	-0.9418828167	-0.3868530615	-0.265352
C	 0.057043696	-2.0187943252	-0.6937159713	 0.083564
C	 0.1510200093	-3.1964838256	 0.2509358589	-0.389516
C	-0.8560247427	-2.8929935031	 1.3651524708	 0.426438
O	-1.0603477963	-3.5132041545	 2.3612804687	-0.309861
O	-1.5690266546	-1.7615694195	 1.0526047531	-0.212689
C	-1.1012396702	-1.1507506222	-0.13980057	-0.035471
H	 0.9599742846	 1.4549567024	 0.4909464109	 0.239837
H	 0.075463329	-2.2515103434	-1.7576735505	 0.114225
H	-0.1299031888	-4.1404302226	-0.2248109159	 0.154217
H	 1.1503212905	-3.3183455574	 0.6735943962	 0.167574
H	-1.9472962597	-0.8765556383	-0.7680793655	 0.130552
90.4717	100.1798	250.1622	352.5498	438.1387	481.0268	548.4885	619.7356	649.0273	725.8327	804.3845	842.3689	858.8276	872.1763	881.4265	969.3219	998.0561	1017.5969	1044.4935	1107.6804	1134.2161	1178.4596	1212.5613	1222.4032	1286.7367	1312.2865	1343.401	1366.5118	1441.3247	1837.3497	1901.6828	3077.7032	3123.6327	3131.3238	3136.9514	3480.6643
N=C1OC2CC(=O)OC12	[NH][C]1O[C@H]2CC(=O)O[C@@H]12	
InChI=1S/C5H5NO3/c6-5-4-2(8-5)1-3(7)9-4/h2,4,6H,1H2	InChI=1S/C5H5NO3/c6-5-4-2(8-5)1-3(7)9-4/h2,4,6H,1H2/t2-,4+/m0/s1
