9
gdb 130669	2.30075	0.85927	0.81461	2.7369	60.64	-0.2671	-0.122	0.1451	1391.0653	0.034898	-483.643747	-483.63305	-483.632106	-483.684494	30.516	
C	 0.2744911702	-0.1874215183	-0.262811234	-0.143296
C	 0.6634562329	-0.6320346749	 0.9397963468	 0.508301
O	 0.8176021468	-1.0934415864	 1.9784752613	-0.132045
N	-1.9237938021	 0.8104775594	 2.5400962392	-0.010949
N	-2.8411074512	 0.9971235479	 3.1149322326	 0.010445
O	-1.7912701327	-1.1330207241	 0.0369422116	-0.209908
N	-1.0933161191	-0.4971226415	-0.7019807541	 0.028772
C	 1.1064598765	 0.5606397792	-1.123241243	 0.263119
N	 1.7826102215	 1.1748002586	-1.8352858695	-0.314438
14.9497	28.5713	42.3922	56.4868	76.5795	114.8684	165.4591	171.5751	225.4118	409.4978	513.3876	516.5472	620.3674	620.5252	754.5247	981.6473	1374.332	1615.6582	2231.8292	2350.1756	2433.7058	14.9489	28.5705	42.3921	56.4864	76.5794	114.8678	165.459	171.5752	225.4116	409.4979	513.388	516.5473	620.3673	620.5252	754.5246	981.646	1374.3324	1615.6593	2231.8298	2350.1769	2433.7058
O=C1N=NON=C1C#N	C(=N[O])([C][O])C#N.N#N	
InChI=1S/C3N4O2/c4-1-2-3(8)5-7-9-6-2	InChI=1S/C3N2O2.N2/c4-1-3(2-6)5-7;1-2
