10
gdb 132329	1.98667	1.48429	0.84956	2.2142	55.43	-0.2783	-0.0784	0.1999	1154.8502	0.051256	-557.882306	-557.874508	-557.873563	-557.91583	26.304	
F	-0.2850132752	-0.134021535	 0.0064290151	-0.070754
C	 0.0101854747	 1.1760540727	 0.009111801	 0.40947
C	-1.1855796295	 1.9853611301	 0.0302309904	-0.452951
C	-1.1364778021	 3.3348629432	 0.0365475353	 0.392253
F	-2.2730529402	 4.0062445081	 0.0559667505	-0.039729
N	-0.0759687627	 4.1720389217	 0.0258205288	-0.419704
C	 1.1438986828	 4.0841521179	 0.0080645543	 0.600878
O	 2.2902774458	 4.2389538515	-0.0073949735	-0.234068
O	 1.1547873558	 1.5344857728	-0.0052337745	-0.328833
H	-2.1533867193	 1.505698257	 0.0414095026	 0.143438
75.5572	118.8687	128.6034	187.2575	231.6066	387.0607	392.8882	543.8796	588.4523	607.3853	669.6467	695.8836	745.6057	824.5488	869.368	1006.3134	1140.2274	1272.0264	1340.331	1560.0307	1672.8045	1835.4453	2362.3695	3242.564
FC1=CC(F)=NC(=O)O1	FC(=O)C=C(F)N=C=O	
InChI=1S/C4HF2NO2/c5-2-1-3(6)9-4(8)7-2/h1H	InChI=1S/C4HF2NO2/c5-3(7-2-8)1-4(6)9/h1H
