
    -----------------------------------------------------------------------
          Psi4: An Open-Source Ab Initio Electronic Structure Package
                               Psi4 1.3.2 release

                         Git: Rev {HEAD} ecbda83 


    R. M. Parrish, L. A. Burns, D. G. A. Smith, A. C. Simmonett,
    A. E. DePrince III, E. G. Hohenstein, U. Bozkaya, A. Yu. Sokolov,
    R. Di Remigio, R. M. Richard, J. F. Gonthier, A. M. James,
    H. R. McAlexander, A. Kumar, M. Saitow, X. Wang, B. P. Pritchard,
    P. Verma, H. F. Schaefer III, K. Patkowski, R. A. King, E. F. Valeev,
    F. A. Evangelista, J. M. Turney, T. D. Crawford, and C. D. Sherrill,
    J. Chem. Theory Comput. 13(7) pp 3185--3197 (2017).
    (doi: 10.1021/acs.jctc.7b00174)


                         Additional Contributions by
    P. Kraus, H. Kruse, M. H. Lechner, M. C. Schieber, R. A. Shaw,
    A. Alenaizan, R. Galvelis, Z. L. Glick, S. Lehtola, and J. P. Misiewicz

    -----------------------------------------------------------------------


    Psi4 started on: Sunday, 26 April 2020 05:38PM

    Process ID: 26146
    Host:       ds3
    PSIDATADIR: /theoryfs2/ds/metcalf/miniconda2/envs/tf2gpu/share/psi4
    Memory:     500.0 MiB
    Threads:    1
    
  ==> Input File <==

--------------------------------------------------------------------------
import numpy as np
set {scf_type pk
basis cc-pvdz
d_convergence 10
gdma_switch   0
gdma_limit    0
gdma_origin   [ 0.0,  0.0,  0.0 ]
}
molecule test {
    units Angstrom
    0 1
    --
    0 1
    C                0.943361447995519     2.161430120759374    -0.689047647983571
    C                1.880361447995520     3.340430120759374    -0.956047647983571
    C                1.281361447995519     0.913430120759374    -1.469047647983571
    C                2.266361447995519     0.033430120759374    -1.014047647983570
    C                0.575361447995519     0.602430120759374    -2.634047647983571
    C                2.556361447995519    -1.134569879240626    -1.727047647983571
    C                0.858361447995519    -0.562569879240626    -3.346047647983571
    C                1.847361447995519    -1.433569879240626    -2.893047647983571
    H                0.979361447995519     1.921430120759374     0.374952352016429
    H               -0.082638552004481     2.456430120759374    -0.917047647983571
    H                2.892361447995519     3.044430120759374    -0.674047647983571
    H                2.810361447995519     0.251430120759374    -0.107047647983571
    H               -0.199638552004481     1.266430120759374    -2.990047647983571
    H                3.323361447995519    -1.809569879240626    -1.375047647983570
    H                0.299361447995519    -0.806569879240626    -4.236047647983570
    H                2.065361447995519    -2.340569879240626    -3.441047647983571
    H                1.571413447995520     4.196440120759374    -0.338151647983571
    H                1.899049447995519     3.602780120759374    -2.024140647983571
    C               -4.009638552004480     0.008430120759374     2.801952352016429
    C               -0.943638552004481    -0.558569879240626     0.642952352016430
    C               -0.056638552004481    -1.132569879240626     1.545952352016430
    C               -2.217638552004481    -0.181569879240626     1.056952352016429
    C               -2.625638552004481    -0.386569879240626     2.370952352016429
    C               -0.455638552004481    -1.345569879240626     2.861952352016429
    C               -1.739638552004481    -0.972569879240626     3.272952352016429
    H               -0.654638552004481    -0.426569879240626    -0.387047647983571
    H                0.935361447995519    -1.421569879240626     1.223952352016429
    H               -2.892638552004481     0.282430120759374     0.352952352016429
    H                0.240361447995519    -1.780569879240626     3.560952352016429
    H               -4.324638552004481     0.879430120759374     2.224952352016429
    H               -3.977638552004481     0.317430120759374     3.847952352016429
    H               -2.037638552004481    -1.120569879240626     4.296952352016429
    H               -4.756998552004482    -0.790519879240626     2.687305252016429

}
e, wfn = energy('scf', return_wfn=True)
gdma(wfn)
dmavals = variable('DMA DISTRIBUTED MULTIPOLES')
charges = np.array(dmavals)
print(charges)
np.save('SSI-040PHE-133PHE-1-dimer.npy', np.array(charges))--------------------------------------------------------------------------

*** tstart() called on ds3
*** at Sun Apr 26 17:38:14 2020

   => Loading Basis Set <=

    Name: CC-PVDZ
    Role: ORBITAL
    Keyword: BASIS
    atoms 1-8, 19-25  entry C          line   138 file /theoryfs2/ds/metcalf/miniconda2/envs/tf2gpu/share/psi4/basis/cc-pvdz.gbs 
    atoms 9-18, 26-33 entry H          line    22 file /theoryfs2/ds/metcalf/miniconda2/envs/tf2gpu/share/psi4/basis/cc-pvdz.gbs 


         ---------------------------------------------------------
                                   SCF
               by Justin Turney, Rob Parrish, Andy Simmonett
                          and Daniel G. A. Smith
                              RHF Reference
                        1 Threads,    500 MiB Core
         ---------------------------------------------------------

  ==> Geometry <==

    Molecular point group: c1
    Full point group: C1

    Geometry (in Angstrom), charge = 0, multiplicity = 1:

       Center              X                  Y                   Z               Mass       
    ------------   -----------------  -----------------  -----------------  -----------------
         C            0.943361447996     2.161430120759    -0.689047647984    12.000000000000
         C            1.880361447996     3.340430120759    -0.956047647984    12.000000000000
         C            1.281361447996     0.913430120759    -1.469047647984    12.000000000000
         C            2.266361447996     0.033430120759    -1.014047647984    12.000000000000
         C            0.575361447996     0.602430120759    -2.634047647984    12.000000000000
         C            2.556361447996    -1.134569879241    -1.727047647984    12.000000000000
         C            0.858361447996    -0.562569879241    -3.346047647984    12.000000000000
         C            1.847361447996    -1.433569879241    -2.893047647984    12.000000000000
         H            0.979361447996     1.921430120759     0.374952352016     1.007825032230
         H           -0.082638552004     2.456430120759    -0.917047647984     1.007825032230
         H            2.892361447996     3.044430120759    -0.674047647984     1.007825032230
         H            2.810361447996     0.251430120759    -0.107047647984     1.007825032230
         H           -0.199638552004     1.266430120759    -2.990047647984     1.007825032230
         H            3.323361447996    -1.809569879241    -1.375047647984     1.007825032230
         H            0.299361447996    -0.806569879241    -4.236047647984     1.007825032230
         H            2.065361447996    -2.340569879241    -3.441047647984     1.007825032230
         H            1.571413447996     4.196440120759    -0.338151647984     1.007825032230
         H            1.899049447996     3.602780120759    -2.024140647984     1.007825032230
         C           -4.009638552004     0.008430120759     2.801952352016    12.000000000000
         C           -0.943638552004    -0.558569879241     0.642952352016    12.000000000000
         C           -0.056638552004    -1.132569879241     1.545952352016    12.000000000000
         C           -2.217638552004    -0.181569879241     1.056952352016    12.000000000000
         C           -2.625638552004    -0.386569879241     2.370952352016    12.000000000000
         C           -0.455638552004    -1.345569879241     2.861952352016    12.000000000000
         C           -1.739638552004    -0.972569879241     3.272952352016    12.000000000000
         H           -0.654638552004    -0.426569879241    -0.387047647984     1.007825032230
         H            0.935361447996    -1.421569879241     1.223952352016     1.007825032230
         H           -2.892638552004     0.282430120759     0.352952352016     1.007825032230
         H            0.240361447996    -1.780569879241     3.560952352016     1.007825032230
         H           -4.324638552004     0.879430120759     2.224952352016     1.007825032230
         H           -3.977638552004     0.317430120759     3.847952352016     1.007825032230
         H           -2.037638552004    -1.120569879241     4.296952352016     1.007825032230
         H           -4.756998552004    -0.790519879241     2.687305252016     1.007825032230

  Running in c1 symmetry.

  Rotational constants: A =      0.03052  B =      0.00970  C =      0.00897 [cm^-1]
  Rotational constants: A =    914.85106  B =    290.74342  C =    268.96208 [MHz]
  Nuclear repulsion =  890.623478401296893

  Charge       = 0
  Multiplicity = 1
  Electrons    = 108
  Nalpha       = 54
  Nbeta        = 54

  ==> Algorithm <==

  SCF Algorithm Type is PK.
  DIIS enabled.
  MOM disabled.
  Fractional occupation disabled.
  Guess Type is SAD.
  Energy threshold   = 1.00e-06
  Density threshold  = 1.00e-10
  Integral threshold = 0.00e+00

  ==> Primary Basis <==

  Basis Set: CC-PVDZ
    Blend: CC-PVDZ
    Number of shells: 144
    Number of basis function: 300
    Number of Cartesian functions: 315
    Spherical Harmonics?: true
    Max angular momentum: 2

  ==> Pre-Iterations <==

   -------------------------------------------------------
    Irrep   Nso     Nmo     Nalpha   Nbeta   Ndocc  Nsocc
   -------------------------------------------------------
     A        300     300       0       0       0       0
   -------------------------------------------------------
    Total     300     300      54      54      54       0
   -------------------------------------------------------

  ==> Integral Setup <==

  Using integral reordering PK algorithm.
  Sizing the integral batches needed.
  Building batch lookup table.
   Calculation information:
      Number of atoms:                  33
      Number of AO shells:             144
      Number of primitives:            420
      Number of atomic orbitals:       315
      Number of basis functions:       300

      Integral cutoff                 1.00e-12
      Number of threads:                 1

	Batch   1 pq = [       0,    9405] index = [             0,44231715] size =     44231715
	Batch   2 pq = [    9405,   13301] index = [      44231715,88464951] size =     44233236
	Batch   3 pq = [   13301,   16290] index = [      88464951,132690195] size =     44225244
	Batch   4 pq = [   16290,   18810] index = [     132690195,176917455] size =     44227260
	Batch   5 pq = [   18810,   21030] index = [     176917455,221140965] size =     44223510
	Batch   6 pq = [   21030,   23037] index = [     221140965,265363203] size =     44222238
	Batch   7 pq = [   23037,   24883] index = [     265363203,309594286] size =     44231083
	Batch   8 pq = [   24883,   26601] index = [     309594286,353819901] size =     44225615
	Batch   9 pq = [   26601,   28214] index = [     353819901,398029005] size =     44209104
	Batch  10 pq = [   28214,   29740] index = [     398029005,442248670] size =     44219665
	Batch  11 pq = [   29740,   31191] index = [     442248670,486454836] size =     44206166
	Batch  12 pq = [   31191,   32578] index = [     486454836,530679331] size =     44224495
	Batch  13 pq = [   32578,   33908] index = [     530679331,574893186] size =     44213855
	Batch  14 pq = [   33908,   35188] index = [     574893186,619115266] size =     44222080
	Batch  15 pq = [   35188,   36423] index = [     619115266,663335676] size =     44220410
	Batch  16 pq = [   36423,   37617] index = [     663335676,707538153] size =     44202477
	Batch  17 pq = [   37617,   38775] index = [     707538153,751769700] size =     44231547
	Batch  18 pq = [   38775,   39899] index = [     751769700,795985050] size =     44215350
	Batch  19 pq = [   39899,   40992] index = [     795985050,840192528] size =     44207478
	Batch  20 pq = [   40992,   42057] index = [     840192528,884416653] size =     44224125
	Batch  21 pq = [   42057,   43095] index = [     884416653,928611060] size =     44194407
	Batch  22 pq = [   43095,   44109] index = [     928611060,972823995] size =     44212935
	Batch  23 pq = [   44109,   45150] index = [     972823995,1019283825] size =     46459830
  Task number: 93
  Buffer size: 11059200
  Buffer per thread: 2
  We computed 55680999 shell quartets total.
  Whereas there are 54502020 unique shell quartets.
     2.16 percent of shell quartets recomputed by reordering.

  ==> DiskJK: Disk-Based J/K Matrices <==

    J tasked:                  Yes
    K tasked:                  Yes
    wK tasked:                  No
    Memory [MiB]:              375
    Schwarz Cutoff:          1E-12

    OpenMP threads:              1

  Minimum eigenvalue in the overlap matrix is 2.9338707917E-04.
  Using Symmetric Orthogonalization.

  SCF Guess: Superposition of Atomic Densities via on-the-fly atomic UHF.

  ==> Iterations <==

                        Total Energy        Delta E     RMS |[F,P]|

   @RHF iter SAD:  -577.38332442891169   -5.77383e+02   0.00000e+00 
   @RHF iter   1:  -578.24010257718476   -8.56778e-01   2.20134e-03 DIIS
   @RHF iter   2:  -578.51215264144628   -2.72050e-01   8.89580e-04 DIIS
   @RHF iter   3:  -578.55149445510528   -3.93418e-02   2.06867e-04 DIIS
   @RHF iter   4:  -578.55493200106389   -3.43755e-03   4.96183e-05 DIIS
   @RHF iter   5:  -578.55506962365439   -1.37623e-04   1.64447e-05 DIIS
   @RHF iter   6:  -578.55508513002849   -1.55064e-05   4.14379e-06 DIIS
   @RHF iter   7:  -578.55508634552950   -1.21550e-06   1.09723e-06 DIIS
   @RHF iter   8:  -578.55508645909288   -1.13563e-07   3.86271e-07 DIIS
   @RHF iter   9:  -578.55508648212981   -2.30369e-08   1.85510e-07 DIIS
   @RHF iter  10:  -578.55508648904311   -6.91330e-09   9.79684e-08 DIIS
   @RHF iter  11:  -578.55508649143167   -2.38856e-09   3.94197e-08 DIIS
   @RHF iter  12:  -578.55508649171475   -2.83080e-10   1.42555e-08 DIIS
   @RHF iter  13:  -578.55508649174840   -3.36513e-11   4.85593e-09 DIIS
   @RHF iter  14:  -578.55508649175613   -7.73070e-12   1.60676e-09 DIIS
   @RHF iter  15:  -578.55508649175351    2.61480e-12   4.89201e-10 DIIS
   @RHF iter  16:  -578.55508649175295    5.68434e-13   1.75416e-10 DIIS
   @RHF iter  17:  -578.55508649175385   -9.09495e-13   7.94083e-11 DIIS
  Energy and wave function converged.


  ==> Post-Iterations <==

    Orbital Energies [Eh]
    ---------------------

    Doubly Occupied:                                                      

       1A    -11.240520     2A    -11.239916     3A    -11.238505  
       4A    -11.235016     5A    -11.234739     6A    -11.234034  
       7A    -11.233391     8A    -11.230875     9A    -11.227488  
      10A    -11.225994    11A    -11.225664    12A    -11.225343  
      13A    -11.223683    14A    -11.223227    15A    -11.222907  
      16A     -1.154373    17A     -1.146902    18A     -1.062232  
      19A     -1.039844    20A     -1.013156    21A     -1.004975  
      22A     -0.982227    23A     -0.926644    24A     -0.860906  
      25A     -0.827120    26A     -0.820221    27A     -0.789132  
      28A     -0.786070    29A     -0.692039    30A     -0.685682  
      31A     -0.639573    32A     -0.636673    33A     -0.626303  
      34A     -0.625085    35A     -0.592202    36A     -0.587544  
      37A     -0.577452    38A     -0.576575    39A     -0.574028  
      40A     -0.558335    41A     -0.540865    42A     -0.530028  
      43A     -0.519844    44A     -0.498670    45A     -0.485516  
      46A     -0.480337    47A     -0.477510    48A     -0.475929  
      49A     -0.474318    50A     -0.468619    51A     -0.334416  
      52A     -0.326707    53A     -0.323001    54A     -0.315832  

    Virtual:                                                              

      55A      0.129709    56A      0.131951    57A      0.143618  
      58A      0.147124    59A      0.177483    60A      0.193079  
      61A      0.198761    62A      0.204261    63A      0.215440  
      64A      0.225774    65A      0.241107    66A      0.245305  
      67A      0.251590    68A      0.255063    69A      0.260642  
      70A      0.275996    71A      0.277965    72A      0.286534  
      73A      0.294281    74A      0.296939    75A      0.306935  
      76A      0.314841    77A      0.342621    78A      0.373245  
      79A      0.382688    80A      0.387951    81A      0.415492  
      82A      0.449256    83A      0.456158    84A      0.464543  
      85A      0.470095    86A      0.483565    87A      0.484434  
      88A      0.491173    89A      0.500225    90A      0.562489  
      91A      0.569581    92A      0.589813    93A      0.602845  
      94A      0.612560    95A      0.622516    96A      0.631196  
      97A      0.643396    98A      0.676148    99A      0.679808  
     100A      0.683874   101A      0.703314   102A      0.708557  
     103A      0.711331   104A      0.721881   105A      0.732210  
     106A      0.736894   107A      0.738952   108A      0.742310  
     109A      0.747248   110A      0.752637   111A      0.753633  
     112A      0.761665   113A      0.768596   114A      0.770999  
     115A      0.789918   116A      0.795748   117A      0.809318  
     118A      0.823323   119A      0.827177   120A      0.842399  
     121A      0.847579   122A      0.859106   123A      0.870874  
     124A      0.878107   125A      0.883331   126A      0.887082  
     127A      0.890450   128A      0.892571   129A      0.897677  
     130A      0.903213   131A      0.910162   132A      0.914105  
     133A      0.924681   134A      0.934048   135A      0.935138  
     136A      0.942150   137A      0.950536   138A      0.962048  
     139A      0.966162   140A      0.969623   141A      0.981384  
     142A      0.995426   143A      1.005762   144A      1.016544  
     145A      1.032428   146A      1.053927   147A      1.073612  
     148A      1.100420   149A      1.117627   150A      1.130754  
     151A      1.137109   152A      1.147402   153A      1.157237  
     154A      1.162522   155A      1.163142   156A      1.190853  
     157A      1.194362   158A      1.207960   159A      1.213409  
     160A      1.237953   161A      1.243627   162A      1.254542  
     163A      1.264510   164A      1.268828   165A      1.278245  
     166A      1.283989   167A      1.292226   168A      1.300252  
     169A      1.311698   170A      1.313879   171A      1.322189  
     172A      1.325075   173A      1.341085   174A      1.383798  
     175A      1.402104   176A      1.426163   177A      1.438247  
     178A      1.451578   179A      1.505696   180A      1.523058  
     181A      1.525624   182A      1.555848   183A      1.568751  
     184A      1.605945   185A      1.619702   186A      1.626907  
     187A      1.677518   188A      1.681753   189A      1.685610  
     190A      1.706211   191A      1.725722   192A      1.742030  
     193A      1.747744   194A      1.758787   195A      1.762890  
     196A      1.773180   197A      1.779352   198A      1.796274  
     199A      1.815464   200A      1.852270   201A      1.863871  
     202A      1.868001   203A      1.873074   204A      1.879566  
     205A      1.885874   206A      1.890954   207A      1.902177  
     208A      1.905581   209A      1.914569   210A      1.917094  
     211A      1.919493   212A      1.922255   213A      1.929122  
     214A      1.934871   215A      1.942595   216A      1.948407  
     217A      1.954048   218A      1.961009   219A      1.969614  
     220A      1.974287   221A      1.981152   222A      1.983842  
     223A      2.001367   224A      2.009590   225A      2.015958  
     226A      2.023954   227A      2.034283   228A      2.058611  
     229A      2.062977   230A      2.071770   231A      2.079456  
     232A      2.083191   233A      2.101942   234A      2.113893  
     235A      2.130455   236A      2.146894   237A      2.152494  
     238A      2.155381   239A      2.158410   240A      2.161918  
     241A      2.173912   242A      2.180101   243A      2.183580  
     244A      2.205615   245A      2.207243   246A      2.246705  
     247A      2.259143   248A      2.270278   249A      2.273641  
     250A      2.293977   251A      2.301007   252A      2.311009  
     253A      2.314586   254A      2.319584   255A      2.322136  
     256A      2.339477   257A      2.383356   258A      2.394310  
     259A      2.443376   260A      2.476072   261A      2.481828  
     262A      2.488804   263A      2.501654   264A      2.507374  
     265A      2.521251   266A      2.542857   267A      2.546770  
     268A      2.578733   269A      2.629904   270A      2.636837  
     271A      2.747641   272A      2.752387   273A      2.759128  
     274A      2.765350   275A      2.769526   276A      2.777335  
     277A      2.789056   278A      2.798257   279A      2.804301  
     280A      2.842343   281A      2.845909   282A      2.854864  
     283A      2.876155   284A      2.887538   285A      2.910719  
     286A      2.951969   287A      2.990725   288A      2.995675  
     289A      3.014891   290A      3.030988   291A      3.047226  
     292A      3.055898   293A      3.163839   294A      3.184340  
     295A      3.192368   296A      3.211053   297A      3.299543  
     298A      3.317940   299A      3.956977   300A      3.979577  

    Final Occupation by Irrep:
              A 
    DOCC [    54 ]

  @RHF Final Energy:  -578.55508649175385

   => Energetics <=

    Nuclear Repulsion Energy =            890.6234784012968930
    One-Electron Energy =               -2549.3607581324986313
    Two-Electron Energy =                1080.1821932394479973
    Total Energy =                       -578.5550864917538547

Computation Completed


Properties will be evaluated at   0.000000,   0.000000,   0.000000 [a0]

Properties computed using the SCF density matrix

  Nuclear Dipole Moment: [e a0]
     X:    -1.7907      Y:     7.2393      Z:     1.9502

  Electronic Dipole Moment: [e a0]
     X:     1.7346      Y:    -7.1147      Z:    -1.9489

  Dipole Moment: [e a0]
     X:    -0.0560      Y:     0.1246      Z:     0.0013     Total:     0.1366

  Dipole Moment: [D]
     X:    -0.1424      Y:     0.3167      Z:     0.0033     Total:     0.3472


*** tstop() called on ds3 at Sun Apr 26 17:52:11 2020
Module time:
	user time   =     473.69 seconds =       7.89 minutes
	system time =     161.42 seconds =       2.69 minutes
	total time  =        837 seconds =      13.95 minutes
Total time:
	user time   =     473.69 seconds =       7.89 minutes
	system time =     161.42 seconds =       2.69 minutes
	total time  =        837 seconds =      13.95 minutes
                                     G D M A

                                 by Anthony Stone

                           version 2.2.06, 22 June 2011

               Distributed Multipoles from Gaussian wavefunctions


Starting at 17:52:11 on 26 Apr 2020 


Using SCF density matrix from file ./SSI/SSI-040PHE-133PHE-1-dimer.test.26146.fchk


                         Distributed Multipole Analysis

Standard DMA

Positions and radii in angstrom
Multipole moments in atomic units, ea_0^k for rank k

C          x =  0.943361  y =  2.161430  z = -0.689048 angstrom
           Maximum rank =  0   Radius =  0.650 angstrom
                   Q00  =  -0.037472

C          x =  1.880361  y =  3.340430  z = -0.956048 angstrom
           Maximum rank =  0   Radius =  0.650 angstrom
                   Q00  =  -0.228709

C          x =  1.281361  y =  0.913430  z = -1.469048 angstrom
           Maximum rank =  0   Radius =  0.650 angstrom
                   Q00  =  -0.110270

C          x =  2.266361  y =  0.033430  z = -1.014048 angstrom
           Maximum rank =  0   Radius =  0.650 angstrom
                   Q00  =  -0.098985

C          x =  0.575361  y =  0.602430  z = -2.634048 angstrom
           Maximum rank =  0   Radius =  0.650 angstrom
                   Q00  =  -0.000228

C          x =  2.556361  y = -1.134570  z = -1.727048 angstrom
           Maximum rank =  0   Radius =  0.650 angstrom
                   Q00  =  -0.061443

C          x =  0.858361  y = -0.562570  z = -3.346048 angstrom
           Maximum rank =  0   Radius =  0.650 angstrom
                   Q00  =  -0.076781

C          x =  1.847361  y = -1.433570  z = -2.893048 angstrom
           Maximum rank =  0   Radius =  0.650 angstrom
                   Q00  =  -0.081280

H          x =  0.979361  y =  1.921430  z =  0.374952 angstrom
           Maximum rank =  0   Radius =  0.325 angstrom
                   Q00  =   0.075927

H          x = -0.082639  y =  2.456430  z = -0.917048 angstrom
           Maximum rank =  0   Radius =  0.325 angstrom
                   Q00  =   0.064007

H          x =  2.892361  y =  3.044430  z = -0.674048 angstrom
           Maximum rank =  0   Radius =  0.325 angstrom
                   Q00  =   0.080740

H          x =  2.810361  y =  0.251430  z = -0.107048 angstrom
           Maximum rank =  0   Radius =  0.325 angstrom
                   Q00  =   0.059614

H          x = -0.199639  y =  1.266430  z = -2.990048 angstrom
           Maximum rank =  0   Radius =  0.325 angstrom
                   Q00  =   0.057200

H          x =  3.323361  y = -1.809570  z = -1.375048 angstrom
           Maximum rank =  0   Radius =  0.325 angstrom
                   Q00  =   0.066745

H          x =  0.299361  y = -0.806570  z = -4.236048 angstrom
           Maximum rank =  0   Radius =  0.325 angstrom
                   Q00  =   0.066228

H          x =  2.065361  y = -2.340570  z = -3.441048 angstrom
           Maximum rank =  0   Radius =  0.325 angstrom
                   Q00  =   0.064362

H          x =  1.571413  y =  4.196440  z = -0.338152 angstrom
           Maximum rank =  0   Radius =  0.325 angstrom
                   Q00  =   0.084673

H          x =  1.899049  y =  3.602780  z = -2.024141 angstrom
           Maximum rank =  0   Radius =  0.325 angstrom
                   Q00  =   0.083584

C          x = -4.009639  y =  0.008430  z =  2.801952 angstrom
           Maximum rank =  0   Radius =  0.650 angstrom
                   Q00  =  -0.198792

C          x = -0.943639  y = -0.558570  z =  0.642952 angstrom
           Maximum rank =  0   Radius =  0.650 angstrom
                   Q00  =  -0.077080

C          x = -0.056639  y = -1.132570  z =  1.545952 angstrom
           Maximum rank =  0   Radius =  0.650 angstrom
                   Q00  =  -0.080248

C          x = -2.217639  y = -0.181570  z =  1.056952 angstrom
           Maximum rank =  0   Radius =  0.650 angstrom
                   Q00  =   0.005287

C          x = -2.625639  y = -0.386570  z =  2.370952 angstrom
           Maximum rank =  0   Radius =  0.650 angstrom
                   Q00  =  -0.104415

C          x = -0.455639  y = -1.345570  z =  2.861952 angstrom
           Maximum rank =  0   Radius =  0.650 angstrom
                   Q00  =  -0.060592

C          x = -1.739639  y = -0.972570  z =  3.272952 angstrom
           Maximum rank =  0   Radius =  0.650 angstrom
                   Q00  =  -0.092432

H          x = -0.654639  y = -0.426570  z = -0.387048 angstrom
           Maximum rank =  0   Radius =  0.325 angstrom
                   Q00  =   0.077697

H          x =  0.935361  y = -1.421570  z =  1.223952 angstrom
           Maximum rank =  0   Radius =  0.325 angstrom
                   Q00  =   0.060049

H          x = -2.892639  y =  0.282430  z =  0.352952 angstrom
           Maximum rank =  0   Radius =  0.325 angstrom
                   Q00  =   0.049870

H          x =  0.240361  y = -1.780570  z =  3.560952 angstrom
           Maximum rank =  0   Radius =  0.325 angstrom
                   Q00  =   0.061620

H          x = -4.324639  y =  0.879430  z =  2.224952 angstrom
           Maximum rank =  0   Radius =  0.325 angstrom
                   Q00  =   0.095542

H          x = -3.977639  y =  0.317430  z =  3.847952 angstrom
           Maximum rank =  0   Radius =  0.325 angstrom
                   Q00  =   0.095601

H          x = -2.037639  y = -1.120570  z =  4.296952 angstrom
           Maximum rank =  0   Radius =  0.325 angstrom
                   Q00  =   0.054715

H          x = -4.756999  y = -0.790520  z =  2.687305 angstrom
           Maximum rank =  0   Radius =  0.325 angstrom
                   Q00  =   0.105266

Total multipoles referred to origin at
           x =   0.000000,  y =    0.000000,  z =    0.000000 angstrom
                   Q00  =  -0.000000

Finished at 17:52:11 on 26 Apr 2020 

  DMA results are available in the Python driver through the
	  variable('DMA DISTRIBUTED MULTIPOLES')
  and
	  variable('DMA TOTAL MULTIPOLES')
  commands.


    Psi4 stopped on: Sunday, 26 April 2020 05:52PM
    Psi4 wall time for execution: 0:13:56.81

*** Psi4 exiting successfully. Buy a developer a beer!
