
    -----------------------------------------------------------------------
          Psi4: An Open-Source Ab Initio Electronic Structure Package
                               Psi4 1.3.2 release

                         Git: Rev {HEAD} ecbda83 


    R. M. Parrish, L. A. Burns, D. G. A. Smith, A. C. Simmonett,
    A. E. DePrince III, E. G. Hohenstein, U. Bozkaya, A. Yu. Sokolov,
    R. Di Remigio, R. M. Richard, J. F. Gonthier, A. M. James,
    H. R. McAlexander, A. Kumar, M. Saitow, X. Wang, B. P. Pritchard,
    P. Verma, H. F. Schaefer III, K. Patkowski, R. A. King, E. F. Valeev,
    F. A. Evangelista, J. M. Turney, T. D. Crawford, and C. D. Sherrill,
    J. Chem. Theory Comput. 13(7) pp 3185--3197 (2017).
    (doi: 10.1021/acs.jctc.7b00174)


                         Additional Contributions by
    P. Kraus, H. Kruse, M. H. Lechner, M. C. Schieber, R. A. Shaw,
    A. Alenaizan, R. Galvelis, Z. L. Glick, S. Lehtola, and J. P. Misiewicz

    -----------------------------------------------------------------------


    Psi4 started on: Sunday, 26 April 2020 06:28PM

    Process ID: 15408
    Host:       ds3
    PSIDATADIR: /theoryfs2/ds/metcalf/miniconda2/envs/tf2gpu/share/psi4
    Memory:     500.0 MiB
    Threads:    1
    
  ==> Input File <==

--------------------------------------------------------------------------
import numpy as np
set {scf_type pk
basis cc-pvdz
d_convergence 10
gdma_switch   0
gdma_limit    0
gdma_origin   [ 0.0,  0.0,  0.0 ]
}
molecule test {
    units Angstrom
    0 1
    --
    0 1
    C                0.803625453286156     0.695863834763904     2.211110863490271
    C                0.641625453286156     0.398863834763904    -0.276889136509729
    C                0.998625453286156    -0.119136165236096     0.960110863490272
    C                0.802625453286156    -0.361136165236096    -1.432889136509729
    C                1.510625453286156    -1.413136165236096     1.029110863490271
    C                1.320625453286156    -1.649136165236096    -1.357889136509729
    C                1.678625453286156    -2.172136165236096    -0.126889136509729
    H                0.235625453286156     1.397863834763904    -0.342889136509729
    H                0.515625453286156     0.043863834763904    -2.392889136509728
    H                0.742625453286156     0.006863834763904     3.053110863490271
    H               -0.155374546713844     1.210863834763904     2.152110863490271
    H                1.786625453286156    -1.833136165236096     1.986110863490271
    H                1.447625453286156    -2.240136165236096    -2.253889136509729
    H                2.089625453286156    -3.163136165236096    -0.086889136509729
    H                1.603965453286156     1.423183834763904     2.412268863490272
    C               -2.760374546713844     1.559863834763904    -0.330889136509729
    C               -3.987374546713844     2.346863834763904    -0.770889136509729
    H               -2.320374546713844     1.995863834763904     0.569110863490271
    H               -3.047374546713844     0.528863834763904    -0.136889136509729
    H               -2.021374546713844     1.563863834763904    -1.132889136509729
    H               -4.405374546713844     1.853863834763904    -1.649889136509729
    H               -3.714214546713844     3.378383834763904    -1.038012136509729
    H               -4.767204546713845     2.325183834763904     0.004605863490271

}
e, wfn = energy('scf', return_wfn=True)
gdma(wfn)
dmavals = variable('DMA DISTRIBUTED MULTIPOLES')
charges = np.array(dmavals)
print(charges)
np.save('SSI-015PHE-039ALA-1-dimer.npy', np.array(charges))--------------------------------------------------------------------------

*** tstart() called on ds3
*** at Sun Apr 26 18:28:02 2020

   => Loading Basis Set <=

    Name: CC-PVDZ
    Role: ORBITAL
    Keyword: BASIS
    atoms 1-7, 16-17  entry C          line   138 file /theoryfs2/ds/metcalf/miniconda2/envs/tf2gpu/share/psi4/basis/cc-pvdz.gbs 
    atoms 8-15, 18-23 entry H          line    22 file /theoryfs2/ds/metcalf/miniconda2/envs/tf2gpu/share/psi4/basis/cc-pvdz.gbs 


         ---------------------------------------------------------
                                   SCF
               by Justin Turney, Rob Parrish, Andy Simmonett
                          and Daniel G. A. Smith
                              RHF Reference
                        1 Threads,    500 MiB Core
         ---------------------------------------------------------

  ==> Geometry <==

    Molecular point group: c1
    Full point group: C1

    Geometry (in Angstrom), charge = 0, multiplicity = 1:

       Center              X                  Y                   Z               Mass       
    ------------   -----------------  -----------------  -----------------  -----------------
         C            0.803625453286     0.695863834764     2.211110863490    12.000000000000
         C            0.641625453286     0.398863834764    -0.276889136510    12.000000000000
         C            0.998625453286    -0.119136165236     0.960110863490    12.000000000000
         C            0.802625453286    -0.361136165236    -1.432889136510    12.000000000000
         C            1.510625453286    -1.413136165236     1.029110863490    12.000000000000
         C            1.320625453286    -1.649136165236    -1.357889136510    12.000000000000
         C            1.678625453286    -2.172136165236    -0.126889136510    12.000000000000
         H            0.235625453286     1.397863834764    -0.342889136510     1.007825032230
         H            0.515625453286     0.043863834764    -2.392889136510     1.007825032230
         H            0.742625453286     0.006863834764     3.053110863490     1.007825032230
         H           -0.155374546714     1.210863834764     2.152110863490     1.007825032230
         H            1.786625453286    -1.833136165236     1.986110863490     1.007825032230
         H            1.447625453286    -2.240136165236    -2.253889136510     1.007825032230
         H            2.089625453286    -3.163136165236    -0.086889136510     1.007825032230
         H            1.603965453286     1.423183834764     2.412268863490     1.007825032230
         C           -2.760374546714     1.559863834764    -0.330889136510    12.000000000000
         C           -3.987374546714     2.346863834764    -0.770889136510    12.000000000000
         H           -2.320374546714     1.995863834764     0.569110863490     1.007825032230
         H           -3.047374546714     0.528863834764    -0.136889136510     1.007825032230
         H           -2.021374546714     1.563863834764    -1.132889136510     1.007825032230
         H           -4.405374546714     1.853863834764    -1.649889136510     1.007825032230
         H           -3.714214546714     3.378383834764    -1.038012136510     1.007825032230
         H           -4.767204546714     2.325183834764     0.004605863490     1.007825032230

  Running in c1 symmetry.

  Rotational constants: A =      0.07510  B =      0.02268  C =      0.01874 [cm^-1]
  Rotational constants: A =   2251.34111  B =    679.95126  C =    561.93861 [MHz]
  Nuclear repulsion =  403.468254234028677

  Charge       = 0
  Multiplicity = 1
  Electrons    = 68
  Nalpha       = 34
  Nbeta        = 34

  ==> Algorithm <==

  SCF Algorithm Type is PK.
  DIIS enabled.
  MOM disabled.
  Fractional occupation disabled.
  Guess Type is SAD.
  Energy threshold   = 1.00e-06
  Density threshold  = 1.00e-10
  Integral threshold = 0.00e+00

  ==> Primary Basis <==

  Basis Set: CC-PVDZ
    Blend: CC-PVDZ
    Number of shells: 96
    Number of basis function: 196
    Number of Cartesian functions: 205
    Spherical Harmonics?: true
    Max angular momentum: 2

  ==> Pre-Iterations <==

   -------------------------------------------------------
    Irrep   Nso     Nmo     Nalpha   Nbeta   Ndocc  Nsocc
   -------------------------------------------------------
     A        196     196       0       0       0       0
   -------------------------------------------------------
    Total     196     196      34      34      34       0
   -------------------------------------------------------

  ==> Integral Setup <==

  Using integral reordering PK algorithm.
  Sizing the integral batches needed.
  Building batch lookup table.
   Calculation information:
      Number of atoms:                  23
      Number of AO shells:              96
      Number of primitives:            268
      Number of atomic orbitals:       205
      Number of basis functions:       196

      Integral cutoff                 1.00e-12
      Number of threads:                 1

	Batch   1 pq = [       0,    9405] index = [             0,44231715] size =     44231715
	Batch   2 pq = [    9405,   13301] index = [      44231715,88464951] size =     44233236
	Batch   3 pq = [   13301,   16290] index = [      88464951,132690195] size =     44225244
	Batch   4 pq = [   16290,   18810] index = [     132690195,176917455] size =     44227260
	Batch   5 pq = [   18810,   19306] index = [     176917455,186370471] size =      9453016
  Task number: 17
  Buffer size: 11059200
  Buffer per thread: 2
  We computed 9072187 shell quartets total.
  Whereas there are 10841496 unique shell quartets.

  ==> DiskJK: Disk-Based J/K Matrices <==

    J tasked:                  Yes
    K tasked:                  Yes
    wK tasked:                  No
    Memory [MiB]:              375
    Schwarz Cutoff:          1E-12

    OpenMP threads:              1

  Minimum eigenvalue in the overlap matrix is 3.0564826285E-04.
  Using Symmetric Orthogonalization.

  SCF Guess: Superposition of Atomic Densities via on-the-fly atomic UHF.

  ==> Iterations <==

                        Total Energy        Delta E     RMS |[F,P]|

   @RHF iter SAD:  -347.90949484617363   -3.47909e+02   0.00000e+00 
   @RHF iter   1:  -348.76552246238151   -8.56028e-01   2.90615e-03 DIIS
   @RHF iter   2:  -348.95932047971019   -1.93798e-01   1.20678e-03 DIIS
   @RHF iter   3:  -348.98978935610802   -3.04689e-02   2.59348e-04 DIIS
   @RHF iter   4:  -348.99227846623489   -2.48911e-03   5.32210e-05 DIIS
   @RHF iter   5:  -348.99235279242532   -7.43262e-05   1.79592e-05 DIIS
   @RHF iter   6:  -348.99236065066759   -7.85824e-06   4.84367e-06 DIIS
   @RHF iter   7:  -348.99236131302956   -6.62362e-07   1.24906e-06 DIIS
   @RHF iter   8:  -348.99236136172988   -4.87003e-08   2.90498e-07 DIIS
   @RHF iter   9:  -348.99236136644032   -4.71044e-09   1.22452e-07 DIIS
   @RHF iter  10:  -348.99236136734339   -9.03071e-10   5.49584e-08 DIIS
   @RHF iter  11:  -348.99236136767274   -3.29351e-10   2.20346e-08 DIIS
   @RHF iter  12:  -348.99236136772680   -5.40581e-11   1.02225e-08 DIIS
   @RHF iter  13:  -348.99236136773413   -7.33280e-12   3.94986e-09 DIIS
   @RHF iter  14:  -348.99236136773789   -3.75167e-12   1.03054e-09 DIIS
   @RHF iter  15:  -348.99236136773999   -2.10321e-12   3.76873e-10 DIIS
   @RHF iter  16:  -348.99236136773766    2.33058e-12   1.19849e-10 DIIS
   @RHF iter  17:  -348.99236136773840   -7.38964e-13   4.95796e-11 DIIS
  Energy and wave function converged.


  ==> Post-Iterations <==

    Orbital Energies [Eh]
    ---------------------

    Doubly Occupied:                                                      

       1A    -11.238360     2A    -11.233844     3A    -11.232564  
       4A    -11.229591     5A    -11.228874     6A    -11.228083  
       7A    -11.227921     8A    -11.218517     9A    -11.216135  
      10A     -1.152865    11A     -1.044466    12A     -1.019699  
      13A     -1.010214    14A     -0.930724    15A     -0.836088  
      16A     -0.825181    17A     -0.793792    18A     -0.690948  
      19A     -0.631088    20A     -0.629413    21A     -0.600513  
      22A     -0.596978    23A     -0.580978    24A     -0.576680  
      25A     -0.562124    26A     -0.532925    27A     -0.501817  
      28A     -0.488280    29A     -0.487415    30A     -0.482430  
      31A     -0.481195    32A     -0.480027    33A     -0.330400  
      34A     -0.322299  

    Virtual:                                                              

      35A      0.137236    36A      0.141916    37A      0.174160  
      38A      0.194756    39A      0.196934    40A      0.216291  
      41A      0.233859    42A      0.244970    43A      0.251495  
      44A      0.258024    45A      0.268331    46A      0.273806  
      47A      0.289174    48A      0.292286    49A      0.309518  
      50A      0.343165    51A      0.367654    52A      0.386115  
      53A      0.402506    54A      0.456108    55A      0.465146  
      56A      0.481552    57A      0.498221    58A      0.566821  
      59A      0.588230    60A      0.597046    61A      0.599916  
      62A      0.605730    63A      0.651098    64A      0.671143  
      65A      0.682307    66A      0.694038    67A      0.698934  
      68A      0.706485    69A      0.726853    70A      0.743007  
      71A      0.744051    72A      0.748410    73A      0.767671  
      74A      0.772050    75A      0.783566    76A      0.787021  
      77A      0.823633    78A      0.852410    79A      0.864345  
      80A      0.870114    81A      0.877237    82A      0.891069  
      83A      0.892681    84A      0.894269    85A      0.899250  
      86A      0.902887    87A      0.914975    88A      0.924758  
      89A      0.929837    90A      0.937567    91A      0.968213  
      92A      0.974190    93A      0.989401    94A      1.015919  
      95A      1.022915    96A      1.052341    97A      1.123363  
      98A      1.127449    99A      1.138813   100A      1.143024  
     101A      1.155004   102A      1.159970   103A      1.190749  
     104A      1.216669   105A      1.242659   106A      1.253524  
     107A      1.255131   108A      1.265287   109A      1.306056  
     110A      1.316664   111A      1.326552   112A      1.358901  
     113A      1.416960   114A      1.470518   115A      1.485560  
     116A      1.512555   117A      1.533508   118A      1.553971  
     119A      1.588025   120A      1.611074   121A      1.678695  
     122A      1.681944   123A      1.693010   124A      1.699798  
     125A      1.736343   126A      1.750974   127A      1.762111  
     128A      1.796157   129A      1.812708   130A      1.856987  
     131A      1.863481   132A      1.870185   133A      1.893275  
     134A      1.900161   135A      1.908301   136A      1.913294  
     137A      1.921376   138A      1.925274   139A      1.936150  
     140A      1.943325   141A      1.950119   142A      1.951673  
     143A      1.960497   144A      1.967040   145A      1.981916  
     146A      1.984328   147A      2.010654   148A      2.020893  
     149A      2.045871   150A      2.063510   151A      2.079562  
     152A      2.098220   153A      2.109316   154A      2.113071  
     155A      2.142055   156A      2.160051   157A      2.173800  
     158A      2.177178   159A      2.191847   160A      2.260295  
     161A      2.281799   162A      2.298822   163A      2.304001  
     164A      2.310367   165A      2.317723   166A      2.324297  
     167A      2.346473   168A      2.455593   169A      2.465553  
     170A      2.469799   171A      2.485348   172A      2.509799  
     173A      2.547575   174A      2.564373   175A      2.570712  
     176A      2.627014   177A      2.744694   178A      2.758113  
     179A      2.765400   180A      2.771933   181A      2.791698  
     182A      2.792572   183A      2.822369   184A      2.849655  
     185A      2.857950   186A      2.862659   187A      2.880341  
     188A      2.948004   189A      2.967891   190A      2.987015  
     191A      3.012825   192A      3.036719   193A      3.161205  
     194A      3.203880   195A      3.311240   196A      3.979579  

    Final Occupation by Irrep:
              A 
    DOCC [    34 ]

  @RHF Final Energy:  -348.99236136773840

   => Energetics <=

    Nuclear Repulsion Energy =            403.4682542340286773
    One-Electron Energy =               -1269.6363724353177531
    Two-Electron Energy =                 517.1757568335507358
    Total Energy =                       -348.9923613677383400

Computation Completed


Properties will be evaluated at   0.000000,   0.000000,   0.000000 [a0]

Properties computed using the SCF density matrix

  Nuclear Dipole Moment: [e a0]
     X:   -11.2586      Y:     7.9612      Z:     1.0716

  Electronic Dipole Moment: [e a0]
     X:    11.2297      Y:    -7.9256      Z:    -0.9862

  Dipole Moment: [e a0]
     X:    -0.0289      Y:     0.0356      Z:     0.0854     Total:     0.0970

  Dipole Moment: [D]
     X:    -0.0736      Y:     0.0906      Z:     0.2171     Total:     0.2465


*** tstop() called on ds3 at Sun Apr 26 18:29:53 2020
Module time:
	user time   =      61.49 seconds =       1.02 minutes
	system time =      24.95 seconds =       0.42 minutes
	total time  =        111 seconds =       1.85 minutes
Total time:
	user time   =      61.49 seconds =       1.02 minutes
	system time =      24.95 seconds =       0.42 minutes
	total time  =        111 seconds =       1.85 minutes
                                     G D M A

                                 by Anthony Stone

                           version 2.2.06, 22 June 2011

               Distributed Multipoles from Gaussian wavefunctions


Starting at 18:29:53 on 26 Apr 2020 


Using SCF density matrix from file ./SSI/SSI-015PHE-039ALA-1-dimer.test.15408.fchk


                         Distributed Multipole Analysis

Standard DMA

Positions and radii in angstrom
Multipole moments in atomic units, ea_0^k for rank k

C          x =  0.803625  y =  0.695864  z =  2.211111 angstrom
           Maximum rank =  0   Radius =  0.650 angstrom
                   Q00  =  -0.200223

C          x =  0.641625  y =  0.398864  z = -0.276889 angstrom
           Maximum rank =  0   Radius =  0.650 angstrom
                   Q00  =  -0.090231

C          x =  0.998625  y = -0.119136  z =  0.960111 angstrom
           Maximum rank =  0   Radius =  0.650 angstrom
                   Q00  =  -0.099734

C          x =  0.802625  y = -0.361136  z = -1.432889 angstrom
           Maximum rank =  0   Radius =  0.650 angstrom
                   Q00  =  -0.060913

C          x =  1.510625  y = -1.413136  z =  1.029111 angstrom
           Maximum rank =  0   Radius =  0.650 angstrom
                   Q00  =   0.004799

C          x =  1.320625  y = -1.649136  z = -1.357889 angstrom
           Maximum rank =  0   Radius =  0.650 angstrom
                   Q00  =  -0.079084

C          x =  1.678625  y = -2.172136  z = -0.126889 angstrom
           Maximum rank =  0   Radius =  0.650 angstrom
                   Q00  =  -0.075618

H          x =  0.235625  y =  1.397864  z = -0.342889 angstrom
           Maximum rank =  0   Radius =  0.325 angstrom
                   Q00  =   0.057416

H          x =  0.515625  y =  0.043864  z = -2.392889 angstrom
           Maximum rank =  0   Radius =  0.325 angstrom
                   Q00  =   0.062361

H          x =  0.742625  y =  0.006864  z =  3.053111 angstrom
           Maximum rank =  0   Radius =  0.325 angstrom
                   Q00  =   0.096003

H          x = -0.155375  y =  1.210864  z =  2.152111 angstrom
           Maximum rank =  0   Radius =  0.325 angstrom
                   Q00  =   0.100227

H          x =  1.786625  y = -1.833136  z =  1.986111 angstrom
           Maximum rank =  0   Radius =  0.325 angstrom
                   Q00  =   0.057044

H          x =  1.447625  y = -2.240136  z = -2.253889 angstrom
           Maximum rank =  0   Radius =  0.325 angstrom
                   Q00  =   0.060299

H          x =  2.089625  y = -3.163136  z = -0.086889 angstrom
           Maximum rank =  0   Radius =  0.325 angstrom
                   Q00  =   0.063342

H          x =  1.603965  y =  1.423184  z =  2.412269 angstrom
           Maximum rank =  0   Radius =  0.325 angstrom
                   Q00  =   0.105089

C          x = -2.760375  y =  1.559864  z = -0.330889 angstrom
           Maximum rank =  0   Radius =  0.650 angstrom
                   Q00  =  -0.232832

C          x = -3.987375  y =  2.346864  z = -0.770889 angstrom
           Maximum rank =  0   Radius =  0.650 angstrom
                   Q00  =  -0.236670

H          x = -2.320375  y =  1.995864  z =  0.569111 angstrom
           Maximum rank =  0   Radius =  0.325 angstrom
                   Q00  =   0.074139

H          x = -3.047375  y =  0.528864  z = -0.136889 angstrom
           Maximum rank =  0   Radius =  0.325 angstrom
                   Q00  =   0.084610

H          x = -2.021375  y =  1.563864  z = -1.132889 angstrom
           Maximum rank =  0   Radius =  0.325 angstrom
                   Q00  =   0.075858

H          x = -4.405375  y =  1.853864  z = -1.649889 angstrom
           Maximum rank =  0   Radius =  0.325 angstrom
                   Q00  =   0.076800

H          x = -3.714215  y =  3.378384  z = -1.038012 angstrom
           Maximum rank =  0   Radius =  0.325 angstrom
                   Q00  =   0.078309

H          x = -4.767205  y =  2.325184  z =  0.004606 angstrom
           Maximum rank =  0   Radius =  0.325 angstrom
                   Q00  =   0.079009

Total multipoles referred to origin at
           x =   0.000000,  y =    0.000000,  z =    0.000000 angstrom
                   Q00  =  -0.000000

Finished at 18:29:53 on 26 Apr 2020 

  DMA results are available in the Python driver through the
	  variable('DMA DISTRIBUTED MULTIPOLES')
  and
	  variable('DMA TOTAL MULTIPOLES')
  commands.


    Psi4 stopped on: Sunday, 26 April 2020 06:29PM
    Psi4 wall time for execution: 0:01:50.81

*** Psi4 exiting successfully. Buy a developer a beer!
