
    -----------------------------------------------------------------------
          Psi4: An Open-Source Ab Initio Electronic Structure Package
                               Psi4 1.3.2 release

                         Git: Rev {HEAD} ecbda83 


    R. M. Parrish, L. A. Burns, D. G. A. Smith, A. C. Simmonett,
    A. E. DePrince III, E. G. Hohenstein, U. Bozkaya, A. Yu. Sokolov,
    R. Di Remigio, R. M. Richard, J. F. Gonthier, A. M. James,
    H. R. McAlexander, A. Kumar, M. Saitow, X. Wang, B. P. Pritchard,
    P. Verma, H. F. Schaefer III, K. Patkowski, R. A. King, E. F. Valeev,
    F. A. Evangelista, J. M. Turney, T. D. Crawford, and C. D. Sherrill,
    J. Chem. Theory Comput. 13(7) pp 3185--3197 (2017).
    (doi: 10.1021/acs.jctc.7b00174)


                         Additional Contributions by
    P. Kraus, H. Kruse, M. H. Lechner, M. C. Schieber, R. A. Shaw,
    A. Alenaizan, R. Galvelis, Z. L. Glick, S. Lehtola, and J. P. Misiewicz

    -----------------------------------------------------------------------


    Psi4 started on: Tuesday, 28 April 2020 09:16AM

    Process ID: 9950
    Host:       ds3
    PSIDATADIR: /theoryfs2/ds/metcalf/miniconda2/envs/tf2gpu/share/psi4
    Memory:     500.0 MiB
    Threads:    1
    
  ==> Input File <==

--------------------------------------------------------------------------
import numpy as np
set {scf_type pk
basis cc-pvdz
d_convergence 10
gdma_switch   0
gdma_limit    0
gdma_origin   [ 0.0,  0.0,  0.0 ]
}
molecule test {
    units Angstrom
    0 1
    --
    0 1
    C               -1.084345809197119     3.331788851081809     0.246789931252050
    C               -1.364345809197119     0.971788851081809    -0.621210068747950
    C               -0.522345809197119     2.058788851081809    -0.354210068747950
    C               -0.869345809197119    -0.206211148918191    -1.177210068747950
    C                0.487654190802881    -0.318211148918191    -1.473210068747950
    C                0.839654190802881     1.939788851081810    -0.659210068747950
    C                1.347654190802881     0.753788851081809    -1.213210068747950
    O                0.953654190802881    -1.484211148918191    -2.011210068747950
    H               -2.417345809197119     1.003788851081809    -0.398210068747950
    H               -1.539345809197119    -1.032211148918191    -1.375210068747950
    H               -0.401345809197119     4.157788851081809     0.040789931252050
    H               -1.143345809197118     3.225788851081809     1.326789931252050
    H                1.503654190802881     2.771788851081809    -0.469210068747950
    H                0.249654190802881    -2.126211148918191    -2.152210068747950
    H                2.397654190802882     0.653788851081809    -1.444210068747950
    H               -2.072635809197119     3.581548851081809    -0.166610068747950
    C               -0.149345809197119    -1.779211148918191     1.790789931252050
    C                0.708654190802881    -1.147211148918190     2.886789931252050
    C               -0.429345809197119    -3.246211148918191     2.095789931252050
    H               -1.087345809197119    -1.237211148918191     1.678789931252050
    H                0.393654190802881    -1.734211148918191     0.846789931252050
    H                1.620654190802882    -1.724211148918191     2.983789931252050
    H                0.176654190802881    -1.139211148918191     3.837789931252050
    H               -1.131345809197118    -3.631211148918191     1.347789931252050
    H                0.503654190802881    -3.813211148918191     1.998789931252050
    H                0.983988190802881    -0.112186148918191     2.635959931252050
    H               -0.843018809197119    -3.375991148918191     3.106749931252050

}
e, wfn = energy('scf', return_wfn=True)
gdma(wfn)
dmavals = variable('DMA DISTRIBUTED MULTIPOLES')
charges = np.array(dmavals)
print(charges)
np.save('SSI-014TYR-022LYS-1-dimer.npy', np.array(charges))--------------------------------------------------------------------------

*** tstart() called on ds3
*** at Tue Apr 28 09:16:39 2020

   => Loading Basis Set <=

    Name: CC-PVDZ
    Role: ORBITAL
    Keyword: BASIS
    atoms 1-7, 17-19  entry C          line   138 file /theoryfs2/ds/metcalf/miniconda2/envs/tf2gpu/share/psi4/basis/cc-pvdz.gbs 
    atoms 8           entry O          line   198 file /theoryfs2/ds/metcalf/miniconda2/envs/tf2gpu/share/psi4/basis/cc-pvdz.gbs 
    atoms 9-16, 20-27 entry H          line    22 file /theoryfs2/ds/metcalf/miniconda2/envs/tf2gpu/share/psi4/basis/cc-pvdz.gbs 


         ---------------------------------------------------------
                                   SCF
               by Justin Turney, Rob Parrish, Andy Simmonett
                          and Daniel G. A. Smith
                              RHF Reference
                        1 Threads,    500 MiB Core
         ---------------------------------------------------------

  ==> Geometry <==

    Molecular point group: c1
    Full point group: C1

    Geometry (in Angstrom), charge = 0, multiplicity = 1:

       Center              X                  Y                   Z               Mass       
    ------------   -----------------  -----------------  -----------------  -----------------
         C           -1.084345809197     3.331788851082     0.246789931252    12.000000000000
         C           -1.364345809197     0.971788851082    -0.621210068748    12.000000000000
         C           -0.522345809197     2.058788851082    -0.354210068748    12.000000000000
         C           -0.869345809197    -0.206211148918    -1.177210068748    12.000000000000
         C            0.487654190803    -0.318211148918    -1.473210068748    12.000000000000
         C            0.839654190803     1.939788851082    -0.659210068748    12.000000000000
         C            1.347654190803     0.753788851082    -1.213210068748    12.000000000000
         O            0.953654190803    -1.484211148918    -2.011210068748    15.994914619570
         H           -2.417345809197     1.003788851082    -0.398210068748     1.007825032230
         H           -1.539345809197    -1.032211148918    -1.375210068748     1.007825032230
         H           -0.401345809197     4.157788851082     0.040789931252     1.007825032230
         H           -1.143345809197     3.225788851082     1.326789931252     1.007825032230
         H            1.503654190803     2.771788851082    -0.469210068748     1.007825032230
         H            0.249654190803    -2.126211148918    -2.152210068748     1.007825032230
         H            2.397654190803     0.653788851082    -1.444210068748     1.007825032230
         H           -2.072635809197     3.581548851082    -0.166610068748     1.007825032230
         C           -0.149345809197    -1.779211148918     1.790789931252    12.000000000000
         C            0.708654190803    -1.147211148918     2.886789931252    12.000000000000
         C           -0.429345809197    -3.246211148918     2.095789931252    12.000000000000
         H           -1.087345809197    -1.237211148918     1.678789931252     1.007825032230
         H            0.393654190803    -1.734211148918     0.846789931252     1.007825032230
         H            1.620654190803    -1.724211148918     2.983789931252     1.007825032230
         H            0.176654190803    -1.139211148918     3.837789931252     1.007825032230
         H           -1.131345809197    -3.631211148918     1.347789931252     1.007825032230
         H            0.503654190803    -3.813211148918     1.998789931252     1.007825032230
         H            0.983988190803    -0.112186148918     2.635959931252     1.007825032230
         H           -0.843018809197    -3.375991148918     3.106749931252     1.007825032230

  Running in c1 symmetry.

  Rotational constants: A =      0.03983  B =      0.02155  C =      0.01722 [cm^-1]
  Rotational constants: A =   1194.19042  B =    646.03204  C =    516.33966 [MHz]
  Nuclear repulsion =  592.962598078450469

  Charge       = 0
  Multiplicity = 1
  Electrons    = 84
  Nalpha       = 42
  Nbeta        = 42

  ==> Algorithm <==

  SCF Algorithm Type is PK.
  DIIS enabled.
  MOM disabled.
  Fractional occupation disabled.
  Guess Type is SAD.
  Energy threshold   = 1.00e-06
  Density threshold  = 1.00e-10
  Integral threshold = 0.00e+00

  ==> Primary Basis <==

  Basis Set: CC-PVDZ
    Blend: CC-PVDZ
    Number of shells: 114
    Number of basis function: 234
    Number of Cartesian functions: 245
    Spherical Harmonics?: true
    Max angular momentum: 2

  ==> Pre-Iterations <==

   -------------------------------------------------------
    Irrep   Nso     Nmo     Nalpha   Nbeta   Ndocc  Nsocc
   -------------------------------------------------------
     A        234     234       0       0       0       0
   -------------------------------------------------------
    Total     234     234      42      42      42       0
   -------------------------------------------------------

  ==> Integral Setup <==

  Using integral reordering PK algorithm.
  Sizing the integral batches needed.
  Building batch lookup table.
   Calculation information:
      Number of atoms:                  27
      Number of AO shells:             114
      Number of primitives:            322
      Number of atomic orbitals:       245
      Number of basis functions:       234

      Integral cutoff                 1.00e-12
      Number of threads:                 1

	Batch   1 pq = [       0,    9405] index = [             0,44231715] size =     44231715
	Batch   2 pq = [    9405,   13301] index = [      44231715,88464951] size =     44233236
	Batch   3 pq = [   13301,   16290] index = [      88464951,132690195] size =     44225244
	Batch   4 pq = [   16290,   18810] index = [     132690195,176917455] size =     44227260
	Batch   5 pq = [   18810,   21030] index = [     176917455,221140965] size =     44223510
	Batch   6 pq = [   21030,   23037] index = [     221140965,265363203] size =     44222238
	Batch   7 pq = [   23037,   24883] index = [     265363203,309594286] size =     44231083
	Batch   8 pq = [   24883,   26601] index = [     309594286,353819901] size =     44225615
	Batch   9 pq = [   26601,   27495] index = [     353819901,378001260] size =     24181359
  Task number: 35
  Buffer size: 11059200
  Buffer per thread: 2
  We computed 21324696 shell quartets total.
  Whereas there are 21487290 unique shell quartets.

  ==> DiskJK: Disk-Based J/K Matrices <==

    J tasked:                  Yes
    K tasked:                  Yes
    wK tasked:                  No
    Memory [MiB]:              375
    Schwarz Cutoff:          1E-12

    OpenMP threads:              1

  Minimum eigenvalue in the overlap matrix is 3.3015200576E-04.
  Using Symmetric Orthogonalization.

  SCF Guess: Superposition of Atomic Densities via on-the-fly atomic UHF.

  ==> Iterations <==

                        Total Energy        Delta E     RMS |[F,P]|

   @RHF iter SAD:  -461.64024845396108   -4.61640e+02   0.00000e+00 
   @RHF iter   1:  -462.60516578099816   -9.64917e-01   2.81934e-03 DIIS
   @RHF iter   2:  -462.84739275860363   -2.42227e-01   1.20177e-03 DIIS
   @RHF iter   3:  -462.88724577935102   -3.98530e-02   2.69579e-04 DIIS
   @RHF iter   4:  -462.89050242745441   -3.25665e-03   1.06261e-04 DIIS
   @RHF iter   5:  -462.89086145949398   -3.59032e-04   2.05527e-05 DIIS
   @RHF iter   6:  -462.89088113822004   -1.96787e-05   6.48582e-06 DIIS
   @RHF iter   7:  -462.89088314589543   -2.00768e-06   1.86843e-06 DIIS
   @RHF iter   8:  -462.89088338277924   -2.36884e-07   7.10470e-07 DIIS
   @RHF iter   9:  -462.89088341809435   -3.53151e-08   2.85411e-07 DIIS
   @RHF iter  10:  -462.89088342468369   -6.58935e-09   1.14193e-07 DIIS
   @RHF iter  11:  -462.89088342662615   -1.94245e-09   5.05201e-08 DIIS
   @RHF iter  12:  -462.89088342704019   -4.14047e-10   2.53754e-08 DIIS
   @RHF iter  13:  -462.89088342711307   -7.28733e-11   8.15759e-09 DIIS
   @RHF iter  14:  -462.89088342712580   -1.27329e-11   1.98584e-09 DIIS
   @RHF iter  15:  -462.89088342712529    5.11591e-13   6.99098e-10 DIIS
   @RHF iter  16:  -462.89088342712159    3.69482e-12   2.24192e-10 DIIS
   @RHF iter  17:  -462.89088342712449   -2.89901e-12   9.77918e-11 DIIS
  Energy and wave function converged.


  ==> Post-Iterations <==

    Orbital Energies [Eh]
    ---------------------

    Doubly Occupied:                                                      

       1A    -20.584444     2A    -11.300299     3A    -11.241867  
       4A    -11.239180     5A    -11.237140     6A    -11.233917  
       7A    -11.233405     8A    -11.229754     9A    -11.213093  
      10A    -11.210037    11A    -11.207644    12A     -1.399357  
      13A     -1.147795    14A     -1.048678    15A     -1.035699  
      16A     -1.016471    17A     -0.926617    18A     -0.917329  
      19A     -0.843140    20A     -0.802952    21A     -0.790250  
      22A     -0.732729    23A     -0.666373    24A     -0.641515  
      25A     -0.622613    26A     -0.607747    27A     -0.593170  
      28A     -0.586504    29A     -0.583011    30A     -0.572292  
      31A     -0.566771    32A     -0.540762    33A     -0.527699  
      34A     -0.527285    35A     -0.497285    36A     -0.485136  
      37A     -0.472124    38A     -0.464262    39A     -0.460388  
      40A     -0.459635    41A     -0.337193    42A     -0.301323  

    Virtual:                                                              

      43A      0.128006    44A      0.152895    45A      0.164882  
      46A      0.180505    47A      0.199096    48A      0.213495  
      49A      0.215899    50A      0.233628    51A      0.246092  
      52A      0.250566    53A      0.260230    54A      0.267821  
      55A      0.275530    56A      0.280552    57A      0.294429  
      58A      0.303674    59A      0.310455    60A      0.324244  
      61A      0.364872    62A      0.367482    63A      0.379804  
      64A      0.427121    65A      0.433459    66A      0.452608  
      67A      0.483814    68A      0.490839    69A      0.505336  
      70A      0.579760    71A      0.594482    72A      0.603683  
      73A      0.612785    74A      0.619413    75A      0.621378  
      76A      0.635115    77A      0.652987    78A      0.667095  
      79A      0.690204    80A      0.708229    81A      0.731263  
      82A      0.734062    83A      0.742886    84A      0.765433  
      85A      0.770638    86A      0.779369    87A      0.783097  
      88A      0.802124    89A      0.810486    90A      0.832269  
      91A      0.836217    92A      0.849625    93A      0.870066  
      94A      0.876425    95A      0.878010    96A      0.885694  
      97A      0.892271    98A      0.900247    99A      0.902319  
     100A      0.904014   101A      0.912324   102A      0.917395  
     103A      0.927679   104A      0.931057   105A      0.940204  
     106A      0.945083   107A      0.952056   108A      0.960314  
     109A      0.980858   110A      0.983985   111A      1.001421  
     112A      1.020755   113A      1.030710   114A      1.058000  
     115A      1.122000   116A      1.132821   117A      1.134642  
     118A      1.144554   119A      1.155720   120A      1.185318  
     121A      1.210762   122A      1.221425   123A      1.248290  
     124A      1.254860   125A      1.271624   126A      1.290117  
     127A      1.302046   128A      1.308606   129A      1.323993  
     130A      1.354510   131A      1.358178   132A      1.393070  
     133A      1.400167   134A      1.469589   135A      1.482813  
     136A      1.486874   137A      1.511672   138A      1.533466  
     139A      1.550937   140A      1.562140   141A      1.610501  
     142A      1.618542   143A      1.649680   144A      1.676139  
     145A      1.684036   146A      1.696417   147A      1.697677  
     148A      1.715616   149A      1.738242   150A      1.746986  
     151A      1.783213   152A      1.805342   153A      1.812110  
     154A      1.861037   155A      1.869769   156A      1.879967  
     157A      1.882855   158A      1.894166   159A      1.900000  
     160A      1.904638   161A      1.915860   162A      1.916959  
     163A      1.928586   164A      1.938931   165A      1.942607  
     166A      1.947067   167A      1.956776   168A      1.965175  
     169A      1.981695   170A      1.991728   171A      1.998689  
     172A      2.010455   173A      2.013841   174A      2.027501  
     175A      2.042401   176A      2.051379   177A      2.061134  
     178A      2.065765   179A      2.073626   180A      2.080494  
     181A      2.124682   182A      2.142916   183A      2.152625  
     184A      2.156781   185A      2.173554   186A      2.202994  
     187A      2.227242   188A      2.258808   189A      2.274966  
     190A      2.294303   191A      2.305608   192A      2.316558  
     193A      2.322323   194A      2.341831   195A      2.350799  
     196A      2.389020   197A      2.401377   198A      2.456820  
     199A      2.469777   200A      2.477948   201A      2.504732  
     202A      2.530777   203A      2.543323   204A      2.569887  
     205A      2.579902   206A      2.607804   207A      2.625840  
     208A      2.650140   209A      2.656685   210A      2.744630  
     211A      2.759079   212A      2.767300   213A      2.775141  
     214A      2.779482   215A      2.797766   216A      2.804437  
     217A      2.832171   218A      2.844889   219A      2.887076  
     220A      2.916123   221A      2.962016   222A      2.978997  
     223A      2.988116   224A      3.004789   225A      3.075095  
     226A      3.103854   227A      3.117570   228A      3.249338  
     229A      3.270690   230A      3.344397   231A      3.582772  
     232A      3.658240   233A      3.971107   234A      4.183124  

    Final Occupation by Irrep:
              A 
    DOCC [    42 ]

  @RHF Final Energy:  -462.89088342712449

   => Energetics <=

    Nuclear Repulsion Energy =            592.9625980784504691
    One-Electron Energy =               -1803.4971913499032325
    Two-Electron Energy =                 747.6437098443282139
    Total Energy =                       -462.8908834271244359

Computation Completed


Properties will be evaluated at   0.000000,   0.000000,   0.000000 [a0]

Properties computed using the SCF density matrix

  Nuclear Dipole Moment: [e a0]
     X:    -2.6261      Y:    -4.2552      Z:    12.9259

  Electronic Dipole Moment: [e a0]
     X:     2.0688      Y:     4.2989      Z:   -12.9122

  Dipole Moment: [e a0]
     X:    -0.5573      Y:     0.0438      Z:     0.0137     Total:     0.5592

  Dipole Moment: [D]
     X:    -1.4165      Y:     0.1113      Z:     0.0348     Total:     1.4213


*** tstop() called on ds3 at Tue Apr 28 09:20:25 2020
Module time:
	user time   =     176.07 seconds =       2.93 minutes
	system time =      59.93 seconds =       1.00 minutes
	total time  =        226 seconds =       3.77 minutes
Total time:
	user time   =     176.07 seconds =       2.93 minutes
	system time =      59.93 seconds =       1.00 minutes
	total time  =        226 seconds =       3.77 minutes
                                     G D M A

                                 by Anthony Stone

                           version 2.2.06, 22 June 2011

               Distributed Multipoles from Gaussian wavefunctions


Starting at 9:20:25 on 28 Apr 2020  


Using SCF density matrix from file ./SSI/SSI-014TYR-022LYS-1-dimer.test.9950.fchk


                         Distributed Multipole Analysis

Standard DMA

Positions and radii in angstrom
Multipole moments in atomic units, ea_0^k for rank k

C          x = -1.084346  y =  3.331789  z =  0.246790 angstrom
           Maximum rank =  0   Radius =  0.650 angstrom
                   Q00  =  -0.203595

C          x = -1.364346  y =  0.971789  z = -0.621210 angstrom
           Maximum rank =  0   Radius =  0.650 angstrom
                   Q00  =   0.043830

C          x = -0.522346  y =  2.058789  z = -0.354210 angstrom
           Maximum rank =  0   Radius =  0.650 angstrom
                   Q00  =  -0.133890

C          x = -0.869346  y = -0.206211  z = -1.177210 angstrom
           Maximum rank =  0   Radius =  0.650 angstrom
                   Q00  =  -0.161718

C          x =  0.487654  y = -0.318211  z = -1.473210 angstrom
           Maximum rank =  0   Radius =  0.650 angstrom
                   Q00  =   0.281766

C          x =  0.839654  y =  1.939789  z = -0.659210 angstrom
           Maximum rank =  0   Radius =  0.650 angstrom
                   Q00  =  -0.053287

C          x =  1.347654  y =  0.753789  z = -1.213210 angstrom
           Maximum rank =  0   Radius =  0.650 angstrom
                   Q00  =  -0.104066

O          x =  0.953654  y = -1.484211  z = -2.011210 angstrom
           Maximum rank =  0   Radius =  0.650 angstrom
                   Q00  =  -0.646197

H          x = -2.417346  y =  1.003789  z = -0.398210 angstrom
           Maximum rank =  0   Radius =  0.325 angstrom
                   Q00  =   0.066403

H          x = -1.539346  y = -1.032211  z = -1.375210 angstrom
           Maximum rank =  0   Radius =  0.325 angstrom
                   Q00  =   0.069245

H          x = -0.401346  y =  4.157789  z =  0.040790 angstrom
           Maximum rank =  0   Radius =  0.325 angstrom
                   Q00  =   0.096383

H          x = -1.143346  y =  3.225789  z =  1.326790 angstrom
           Maximum rank =  0   Radius =  0.325 angstrom
                   Q00  =   0.101959

H          x =  1.503654  y =  2.771789  z = -0.469210 angstrom
           Maximum rank =  0   Radius =  0.325 angstrom
                   Q00  =   0.066799

H          x =  0.249654  y = -2.126211  z = -2.152210 angstrom
           Maximum rank =  0   Radius =  0.325 angstrom
                   Q00  =   0.408658

H          x =  2.397654  y =  0.653789  z = -1.444210 angstrom
           Maximum rank =  0   Radius =  0.325 angstrom
                   Q00  =   0.082149

H          x = -2.072636  y =  3.581549  z = -0.166610 angstrom
           Maximum rank =  0   Radius =  0.325 angstrom
                   Q00  =   0.098484

C          x = -0.149346  y = -1.779211  z =  1.790790 angstrom
           Maximum rank =  0   Radius =  0.650 angstrom
                   Q00  =  -0.074215

C          x =  0.708654  y = -1.147211  z =  2.886790 angstrom
           Maximum rank =  0   Radius =  0.650 angstrom
                   Q00  =  -0.240202

C          x = -0.429346  y = -3.246211  z =  2.095790 angstrom
           Maximum rank =  0   Radius =  0.650 angstrom
                   Q00  =  -0.241071

H          x = -1.087346  y = -1.237211  z =  1.678790 angstrom
           Maximum rank =  0   Radius =  0.325 angstrom
                   Q00  =   0.045789

H          x =  0.393654  y = -1.734211  z =  0.846790 angstrom
           Maximum rank =  0   Radius =  0.325 angstrom
                   Q00  =   0.042242

H          x =  1.620654  y = -1.724211  z =  2.983790 angstrom
           Maximum rank =  0   Radius =  0.325 angstrom
                   Q00  =   0.073931

H          x =  0.176654  y = -1.139211  z =  3.837790 angstrom
           Maximum rank =  0   Radius =  0.325 angstrom
                   Q00  =   0.072832

H          x = -1.131346  y = -3.631211  z =  1.347790 angstrom
           Maximum rank =  0   Radius =  0.325 angstrom
                   Q00  =   0.071347

H          x =  0.503654  y = -3.813211  z =  1.998790 angstrom
           Maximum rank =  0   Radius =  0.325 angstrom
                   Q00  =   0.075030

H          x =  0.983988  y = -0.112186  z =  2.635960 angstrom
           Maximum rank =  0   Radius =  0.325 angstrom
                   Q00  =   0.086026

H          x = -0.843019  y = -3.375991  z =  3.106750 angstrom
           Maximum rank =  0   Radius =  0.325 angstrom
                   Q00  =   0.075373

Total multipoles referred to origin at
           x =   0.000000,  y =    0.000000,  z =    0.000000 angstrom
                   Q00  =  -0.000000

Finished at 9:20:25 on 28 Apr 2020  

  DMA results are available in the Python driver through the
	  variable('DMA DISTRIBUTED MULTIPOLES')
  and
	  variable('DMA TOTAL MULTIPOLES')
  commands.


    Psi4 stopped on: Tuesday, 28 April 2020 09:20AM
    Psi4 wall time for execution: 0:03:46.33

*** Psi4 exiting successfully. Buy a developer a beer!
