
    -----------------------------------------------------------------------
          Psi4: An Open-Source Ab Initio Electronic Structure Package
                               Psi4 1.3.2 release

                         Git: Rev {HEAD} ecbda83 


    R. M. Parrish, L. A. Burns, D. G. A. Smith, A. C. Simmonett,
    A. E. DePrince III, E. G. Hohenstein, U. Bozkaya, A. Yu. Sokolov,
    R. Di Remigio, R. M. Richard, J. F. Gonthier, A. M. James,
    H. R. McAlexander, A. Kumar, M. Saitow, X. Wang, B. P. Pritchard,
    P. Verma, H. F. Schaefer III, K. Patkowski, R. A. King, E. F. Valeev,
    F. A. Evangelista, J. M. Turney, T. D. Crawford, and C. D. Sherrill,
    J. Chem. Theory Comput. 13(7) pp 3185--3197 (2017).
    (doi: 10.1021/acs.jctc.7b00174)


                         Additional Contributions by
    P. Kraus, H. Kruse, M. H. Lechner, M. C. Schieber, R. A. Shaw,
    A. Alenaizan, R. Galvelis, Z. L. Glick, S. Lehtola, and J. P. Misiewicz

    -----------------------------------------------------------------------


    Psi4 started on: Monday, 27 April 2020 12:38PM

    Process ID: 3611
    Host:       ds3
    PSIDATADIR: /theoryfs2/ds/metcalf/miniconda2/envs/tf2gpu/share/psi4
    Memory:     500.0 MiB
    Threads:    1
    
  ==> Input File <==

--------------------------------------------------------------------------
import numpy as np
set {scf_type pk
basis cc-pvdz
d_convergence 10
gdma_switch   0
gdma_limit    0
gdma_origin   [ 0.0,  0.0,  0.0 ]
}
molecule test {
    units Angstrom
    1 1
    --
    1 1
    C               -2.923971775577432     0.000551016505081    -2.920058378366299
    C               -0.324971775577432     1.140551016505081    -0.385058378366299
    C                0.753028224422568     0.320551016505081    -0.713058378366299
    C               -1.508971775577432     1.046551016505080    -1.116058378366299
    C               -1.629971775577432     0.128551016505081    -2.158058378366299
    C                0.645028224422568    -0.592448983494919    -1.750058378366299
    C               -0.542971775577432    -0.692448983494919    -2.462058378366299
    O                1.933028224422568     0.414551016505081    -0.037058378366299
    H               -0.230971775577432     1.861551016505081     0.414941621633701
    H               -2.335971775577432     1.699551016505080    -0.874058378366299
    H                1.489028224422568    -1.213448983494920    -2.004058378366299
    H                2.610028224422568    -0.150448983494919    -0.425058378366299
    H               -2.724971775577432    -0.033448983494919    -3.992058378366299
    H               -3.516971775577432     0.879551016505081    -2.704058378366299
    H               -0.624971775577432    -1.406448983494919    -3.271058378366299
    H               -3.515233775577432    -0.878778983494919    -2.624788378366300
    C                0.550028224422568    -0.179448983494919     3.066941621633700
    C                1.051028224422568    -1.470448983494919     2.458941621633700
    N                1.223028224422568     0.056551016505081     4.368941621633700
    H                0.790028224422568     0.640551016505081     2.379941621633701
    H               -0.538971775577432    -0.218448983494919     3.179941621633700
    H                2.115028224422568    -1.588448983494920     2.673941621633701
    H                0.957028224422568    -1.438448983494919     1.376941621633701
    H                2.228028224422568     0.128551016505081     4.261941621633700
    H                0.906028224422568     0.923551016505081     4.787941621633702
    H                1.033028224422568    -0.683448983494919     5.034941621633701
    H                0.502721224422568    -2.338178983494919     2.854421621633700

}
e, wfn = energy('scf', return_wfn=True)
gdma(wfn)
dmavals = variable('DMA DISTRIBUTED MULTIPOLES')
charges = np.array(dmavals)
print(charges)
np.save('SSI-058TYR-062LYS-1-dimer.npy', np.array(charges))--------------------------------------------------------------------------

*** tstart() called on ds3
*** at Mon Apr 27 12:38:55 2020

   => Loading Basis Set <=

    Name: CC-PVDZ
    Role: ORBITAL
    Keyword: BASIS
    atoms 1-7, 17-18  entry C          line   138 file /theoryfs2/ds/metcalf/miniconda2/envs/tf2gpu/share/psi4/basis/cc-pvdz.gbs 
    atoms 8           entry O          line   198 file /theoryfs2/ds/metcalf/miniconda2/envs/tf2gpu/share/psi4/basis/cc-pvdz.gbs 
    atoms 9-16, 20-27 entry H          line    22 file /theoryfs2/ds/metcalf/miniconda2/envs/tf2gpu/share/psi4/basis/cc-pvdz.gbs 
    atoms 19          entry N          line   168 file /theoryfs2/ds/metcalf/miniconda2/envs/tf2gpu/share/psi4/basis/cc-pvdz.gbs 


         ---------------------------------------------------------
                                   SCF
               by Justin Turney, Rob Parrish, Andy Simmonett
                          and Daniel G. A. Smith
                              RHF Reference
                        1 Threads,    500 MiB Core
         ---------------------------------------------------------

  ==> Geometry <==

    Molecular point group: c1
    Full point group: C1

    Geometry (in Angstrom), charge = 1, multiplicity = 1:

       Center              X                  Y                   Z               Mass       
    ------------   -----------------  -----------------  -----------------  -----------------
         C           -2.923971775577     0.000551016505    -2.920058378366    12.000000000000
         C           -0.324971775577     1.140551016505    -0.385058378366    12.000000000000
         C            0.753028224423     0.320551016505    -0.713058378366    12.000000000000
         C           -1.508971775577     1.046551016505    -1.116058378366    12.000000000000
         C           -1.629971775577     0.128551016505    -2.158058378366    12.000000000000
         C            0.645028224423    -0.592448983495    -1.750058378366    12.000000000000
         C           -0.542971775577    -0.692448983495    -2.462058378366    12.000000000000
         O            1.933028224423     0.414551016505    -0.037058378366    15.994914619570
         H           -0.230971775577     1.861551016505     0.414941621634     1.007825032230
         H           -2.335971775577     1.699551016505    -0.874058378366     1.007825032230
         H            1.489028224423    -1.213448983495    -2.004058378366     1.007825032230
         H            2.610028224423    -0.150448983495    -0.425058378366     1.007825032230
         H           -2.724971775577    -0.033448983495    -3.992058378366     1.007825032230
         H           -3.516971775577     0.879551016505    -2.704058378366     1.007825032230
         H           -0.624971775577    -1.406448983495    -3.271058378366     1.007825032230
         H           -3.515233775577    -0.878778983495    -2.624788378366     1.007825032230
         C            0.550028224423    -0.179448983495     3.066941621634    12.000000000000
         C            1.051028224423    -1.470448983495     2.458941621634    12.000000000000
         N            1.223028224423     0.056551016505     4.368941621634    14.003074004430
         H            0.790028224423     0.640551016505     2.379941621634     1.007825032230
         H           -0.538971775577    -0.218448983495     3.179941621634     1.007825032230
         H            2.115028224423    -1.588448983495     2.673941621634     1.007825032230
         H            0.957028224423    -1.438448983495     1.376941621634     1.007825032230
         H            2.228028224423     0.128551016505     4.261941621634     1.007825032230
         H            0.906028224423     0.923551016505     4.787941621634     1.007825032230
         H            1.033028224423    -0.683448983495     5.034941621634     1.007825032230
         H            0.502721224423    -2.338178983495     2.854421621634     1.007825032230

  Running in c1 symmetry.

  Rotational constants: A =      0.06465  B =      0.01473  C =      0.01367 [cm^-1]
  Rotational constants: A =   1938.07498  B =    441.48568  C =    409.74910 [MHz]
  Nuclear repulsion =  598.705612552273237

  Charge       = 1
  Multiplicity = 1
  Electrons    = 84
  Nalpha       = 42
  Nbeta        = 42

  ==> Algorithm <==

  SCF Algorithm Type is PK.
  DIIS enabled.
  MOM disabled.
  Fractional occupation disabled.
  Guess Type is SAD.
  Energy threshold   = 1.00e-06
  Density threshold  = 1.00e-10
  Integral threshold = 0.00e+00

  ==> Primary Basis <==

  Basis Set: CC-PVDZ
    Blend: CC-PVDZ
    Number of shells: 114
    Number of basis function: 234
    Number of Cartesian functions: 245
    Spherical Harmonics?: true
    Max angular momentum: 2

  ==> Pre-Iterations <==

   -------------------------------------------------------
    Irrep   Nso     Nmo     Nalpha   Nbeta   Ndocc  Nsocc
   -------------------------------------------------------
     A        234     234       0       0       0       0
   -------------------------------------------------------
    Total     234     234      42      42      42       0
   -------------------------------------------------------

  ==> Integral Setup <==

  Using integral reordering PK algorithm.
  Sizing the integral batches needed.
  Building batch lookup table.
   Calculation information:
      Number of atoms:                  27
      Number of AO shells:             114
      Number of primitives:            322
      Number of atomic orbitals:       245
      Number of basis functions:       234

      Integral cutoff                 1.00e-12
      Number of threads:                 1

	Batch   1 pq = [       0,    9405] index = [             0,44231715] size =     44231715
	Batch   2 pq = [    9405,   13301] index = [      44231715,88464951] size =     44233236
	Batch   3 pq = [   13301,   16290] index = [      88464951,132690195] size =     44225244
	Batch   4 pq = [   16290,   18810] index = [     132690195,176917455] size =     44227260
	Batch   5 pq = [   18810,   21030] index = [     176917455,221140965] size =     44223510
	Batch   6 pq = [   21030,   23037] index = [     221140965,265363203] size =     44222238
	Batch   7 pq = [   23037,   24883] index = [     265363203,309594286] size =     44231083
	Batch   8 pq = [   24883,   26601] index = [     309594286,353819901] size =     44225615
	Batch   9 pq = [   26601,   27495] index = [     353819901,378001260] size =     24181359
  Task number: 35
  Buffer size: 11059200
  Buffer per thread: 2
  We computed 18668721 shell quartets total.
  Whereas there are 21487290 unique shell quartets.

  ==> DiskJK: Disk-Based J/K Matrices <==

    J tasked:                  Yes
    K tasked:                  Yes
    wK tasked:                  No
    Memory [MiB]:              375
    Schwarz Cutoff:          1E-12

    OpenMP threads:              1

  Minimum eigenvalue in the overlap matrix is 3.1406394487E-04.
  Using Symmetric Orthogonalization.

  SCF Guess: Superposition of Atomic Densities via on-the-fly atomic UHF.

  ==> Iterations <==

                        Total Energy        Delta E     RMS |[F,P]|

   @RHF iter SAD:  -478.59227917626561   -4.78592e+02   0.00000e+00 
   @RHF iter   1:  -478.99098881798739   -3.98710e-01   2.71094e-03 DIIS
   @RHF iter   2:  -479.22544886419735   -2.34460e-01   1.07296e-03 DIIS
   @RHF iter   3:  -479.25770298536952   -3.22541e-02   2.91054e-04 DIIS
   @RHF iter   4:  -479.26114285774349   -3.43987e-03   1.14206e-04 DIIS
   @RHF iter   5:  -479.26155898276778   -4.16125e-04   2.13110e-05 DIIS
   @RHF iter   6:  -479.26158281304726   -2.38303e-05   6.60272e-06 DIIS
   @RHF iter   7:  -479.26158490132866   -2.08828e-06   2.09245e-06 DIIS
   @RHF iter   8:  -479.26158517415587   -2.72827e-07   7.21479e-07 DIIS
   @RHF iter   9:  -479.26158520985496   -3.56991e-08   2.68645e-07 DIIS
   @RHF iter  10:  -479.26158521623825   -6.38329e-09   1.18714e-07 DIIS
   @RHF iter  11:  -479.26158521839454   -2.15630e-09   5.18458e-08 DIIS
   @RHF iter  12:  -479.26158521887749   -4.82942e-10   2.37810e-08 DIIS
   @RHF iter  13:  -479.26158521894149   -6.40057e-11   7.82680e-09 DIIS
   @RHF iter  14:  -479.26158521894939   -7.90124e-12   2.17476e-09 DIIS
   @RHF iter  15:  -479.26158521894627    3.12639e-12   8.55832e-10 DIIS
   @RHF iter  16:  -479.26158521895093   -4.66116e-12   3.01359e-10 DIIS
   @RHF iter  17:  -479.26158521895093    0.00000e+00   1.40892e-10 DIIS
   @RHF iter  18:  -479.26158521894564    5.28644e-12   7.36580e-11 DIIS
  Energy and wave function converged.


  ==> Post-Iterations <==

    Orbital Energies [Eh]
    ---------------------

    Doubly Occupied:                                                      

       1A    -20.694150     2A    -15.896763     3A    -11.467144  
       4A    -11.397299     5A    -11.389351     6A    -11.331787  
       7A    -11.330523     8A    -11.328925     9A    -11.326472  
      10A    -11.323082    11A    -11.303189    12A     -1.518295  
      13A     -1.510696    14A     -1.245017    15A     -1.210782  
      16A     -1.128421    17A     -1.113247    18A     -1.046106  
      19A     -1.013256    20A     -0.974106    21A     -0.959206  
      22A     -0.940844    23A     -0.898255    24A     -0.853795  
      25A     -0.832030    26A     -0.787999    27A     -0.766670  
      28A     -0.735409    29A     -0.715529    30A     -0.700488  
      31A     -0.694667    32A     -0.684867    33A     -0.682371  
      34A     -0.670044    35A     -0.665745    36A     -0.649302  
      37A     -0.613152    38A     -0.584999    39A     -0.578072  
      40A     -0.562426    41A     -0.433560    42A     -0.397990  

    Virtual:                                                              

      43A     -0.040393    44A      0.022663    45A      0.026505  
      46A      0.032136    47A      0.050986    48A      0.062668  
      49A      0.077026    50A      0.088637    51A      0.106393  
      52A      0.112453    53A      0.126769    54A      0.139206  
      55A      0.147835    56A      0.158113    57A      0.180960  
      58A      0.191038    59A      0.196903    60A      0.205383  
      61A      0.213610    62A      0.225035    63A      0.281525  
      64A      0.287683    65A      0.345081    66A      0.366799  
      67A      0.387284    68A      0.393887    69A      0.400673  
      70A      0.407733    71A      0.419516    72A      0.440775  
      73A      0.445229    74A      0.472177    75A      0.530775  
      76A      0.552330    77A      0.561609    78A      0.572177  
      79A      0.584498    80A      0.600456    81A      0.616749  
      82A      0.624614    83A      0.631097    84A      0.634680  
      85A      0.643789    86A      0.648162    87A      0.662790  
      88A      0.672111    89A      0.683275    90A      0.686947  
      91A      0.690147    92A      0.698507    93A      0.713587  
      94A      0.720693    95A      0.730439    96A      0.750921  
      97A      0.755692    98A      0.773799    99A      0.786309  
     100A      0.787113   101A      0.794816   102A      0.802366  
     103A      0.802761   104A      0.812973   105A      0.824283  
     106A      0.839558   107A      0.846478   108A      0.853091  
     109A      0.856295   110A      0.871935   111A      0.884969  
     112A      0.916500   113A      0.924693   114A      0.939384  
     115A      0.969683   116A      0.985250   117A      1.031186  
     118A      1.049887   119A      1.064020   120A      1.070886  
     121A      1.101063   122A      1.124204   123A      1.148510  
     124A      1.156750   125A      1.177560   126A      1.196537  
     127A      1.208087   128A      1.215572   129A      1.220684  
     130A      1.224886   131A      1.252343   132A      1.265909  
     133A      1.286066   134A      1.304698   135A      1.312410  
     136A      1.388296   137A      1.408219   138A      1.430005  
     139A      1.437116   140A      1.468548   141A      1.472500  
     142A      1.489399   143A      1.504387   144A      1.531369  
     145A      1.582684   146A      1.598353   147A      1.618911  
     148A      1.636421   149A      1.647943   150A      1.665865  
     151A      1.675378   152A      1.683362   153A      1.697606  
     154A      1.712090   155A      1.714011   156A      1.739452  
     157A      1.748281   158A      1.755148   159A      1.787337  
     160A      1.791894   161A      1.793868   162A      1.805389  
     163A      1.818694   164A      1.822488   165A      1.829520  
     166A      1.839751   167A      1.850156   168A      1.861118  
     169A      1.876471   170A      1.879516   171A      1.900810  
     172A      1.909479   173A      1.934527   174A      1.937943  
     175A      1.955045   176A      1.961208   177A      1.973025  
     178A      1.977753   179A      1.979111   180A      1.983556  
     181A      2.017163   182A      2.035463   183A      2.047441  
     184A      2.060064   185A      2.092570   186A      2.118579  
     187A      2.135019   188A      2.138793   189A      2.168669  
     190A      2.172421   191A      2.182107   192A      2.185309  
     193A      2.216308   194A      2.253517   195A      2.262869  
     196A      2.318179   197A      2.323079   198A      2.343173  
     199A      2.362037   200A      2.386170   201A      2.411888  
     202A      2.415132   203A      2.447477   204A      2.451974  
     205A      2.483957   206A      2.518006   207A      2.526870  
     208A      2.549439   209A      2.569216   210A      2.620617  
     211A      2.660498   212A      2.671226   213A      2.698889  
     214A      2.711040   215A      2.714546   216A      2.722622  
     217A      2.760840   218A      2.769303   219A      2.793452  
     220A      2.818713   221A      2.861590   222A      2.883907  
     223A      2.920794   224A      2.995493   225A      3.029660  
     226A      3.106298   227A      3.129577   228A      3.149690  
     229A      3.190892   230A      3.234622   231A      3.487267  
     232A      3.569910   233A      3.885585   234A      4.081000  

    Final Occupation by Irrep:
              A 
    DOCC [    42 ]

  @RHF Final Energy:  -479.26158521894564

   => Energetics <=

    Nuclear Repulsion Energy =            598.7056125522732373
    One-Electron Energy =               -1826.0223365651265794
    Two-Electron Energy =                 748.0551387939075312
    Total Energy =                       -479.2615852189456973

Computation Completed


Properties will be evaluated at   0.000000,   0.000000,   0.000000 [a0]

Properties computed using the SCF density matrix

  Nuclear Dipole Moment: [e a0]
     X:    -0.7978      Y:    -3.5758      Z:    10.3647

  Electronic Dipole Moment: [e a0]
     X:     2.6668      Y:     3.0389      Z:    -3.8642

  Dipole Moment: [e a0]
     X:     1.8690      Y:    -0.5369      Z:     6.5005     Total:     6.7852

  Dipole Moment: [D]
     X:     4.7506      Y:    -1.3645      Z:    16.5227     Total:    17.2462


*** tstop() called on ds3 at Mon Apr 27 12:42:36 2020
Module time:
	user time   =     143.51 seconds =       2.39 minutes
	system time =      74.52 seconds =       1.24 minutes
	total time  =        221 seconds =       3.68 minutes
Total time:
	user time   =     143.51 seconds =       2.39 minutes
	system time =      74.52 seconds =       1.24 minutes
	total time  =        221 seconds =       3.68 minutes
                                     G D M A

                                 by Anthony Stone

                           version 2.2.06, 22 June 2011

               Distributed Multipoles from Gaussian wavefunctions


Starting at 12:42:36 on 27 Apr 2020 


Using SCF density matrix from file ./SSI/SSI-058TYR-062LYS-1-dimer.test.3611.fchk


                         Distributed Multipole Analysis

Standard DMA

Positions and radii in angstrom
Multipole moments in atomic units, ea_0^k for rank k

C          x = -2.923972  y =  0.000551  z = -2.920058 angstrom
           Maximum rank =  0   Radius =  0.650 angstrom
                   Q00  =  -0.192113

C          x = -0.324972  y =  1.140551  z = -0.385058 angstrom
           Maximum rank =  0   Radius =  0.650 angstrom
                   Q00  =  -0.157282

C          x =  0.753028  y =  0.320551  z = -0.713058 angstrom
           Maximum rank =  0   Radius =  0.650 angstrom
                   Q00  =   0.272353

C          x = -1.508972  y =  1.046551  z = -1.116058 angstrom
           Maximum rank =  0   Radius =  0.650 angstrom
                   Q00  =  -0.045212

C          x = -1.629972  y =  0.128551  z = -2.158058 angstrom
           Maximum rank =  0   Radius =  0.650 angstrom
                   Q00  =  -0.130595

C          x =  0.645028  y = -0.592449  z = -1.750058 angstrom
           Maximum rank =  0   Radius =  0.650 angstrom
                   Q00  =  -0.166126

C          x = -0.542972  y = -0.692449  z = -2.462058 angstrom
           Maximum rank =  0   Radius =  0.650 angstrom
                   Q00  =   0.030775

O          x =  1.933028  y =  0.414551  z = -0.037058 angstrom
           Maximum rank =  0   Radius =  0.650 angstrom
                   Q00  =  -0.653195

H          x = -0.230972  y =  1.861551  z =  0.414942 angstrom
           Maximum rank =  0   Radius =  0.325 angstrom
                   Q00  =   0.068539

H          x = -2.335972  y =  1.699551  z = -0.874058 angstrom
           Maximum rank =  0   Radius =  0.325 angstrom
                   Q00  =   0.078306

H          x =  1.489028  y = -1.213449  z = -2.004058 angstrom
           Maximum rank =  0   Radius =  0.325 angstrom
                   Q00  =   0.078440

H          x =  2.610028  y = -0.150449  z = -0.425058 angstrom
           Maximum rank =  0   Radius =  0.325 angstrom
                   Q00  =   0.421370

H          x = -2.724972  y = -0.033449  z = -3.992058 angstrom
           Maximum rank =  0   Radius =  0.325 angstrom
                   Q00  =   0.111252

H          x = -3.516972  y =  0.879551  z = -2.704058 angstrom
           Maximum rank =  0   Radius =  0.325 angstrom
                   Q00  =   0.102760

H          x = -0.624972  y = -1.406449  z = -3.271058 angstrom
           Maximum rank =  0   Radius =  0.325 angstrom
                   Q00  =   0.085765

H          x = -3.515234  y = -0.878779  z = -2.624788 angstrom
           Maximum rank =  0   Radius =  0.325 angstrom
                   Q00  =   0.106800

C          x =  0.550028  y = -0.179449  z =  3.066942 angstrom
           Maximum rank =  0   Radius =  0.650 angstrom
                   Q00  =  -0.034501

C          x =  1.051028  y = -1.470449  z =  2.458942 angstrom
           Maximum rank =  0   Radius =  0.650 angstrom
                   Q00  =  -0.226897

N          x =  1.223028  y =  0.056551  z =  4.368942 angstrom
           Maximum rank =  0   Radius =  0.650 angstrom
                   Q00  =  -0.141989

H          x =  0.790028  y =  0.640551  z =  2.379942 angstrom
           Maximum rank =  0   Radius =  0.325 angstrom
                   Q00  =   0.137247

H          x = -0.538972  y = -0.218449  z =  3.179942 angstrom
           Maximum rank =  0   Radius =  0.325 angstrom
                   Q00  =   0.132690

H          x =  2.115028  y = -1.588449  z =  2.673942 angstrom
           Maximum rank =  0   Radius =  0.325 angstrom
                   Q00  =   0.079745

H          x =  0.957028  y = -1.438449  z =  1.376942 angstrom
           Maximum rank =  0   Radius =  0.325 angstrom
                   Q00  =   0.166147

H          x =  2.228028  y =  0.128551  z =  4.261942 angstrom
           Maximum rank =  0   Radius =  0.325 angstrom
                   Q00  =   0.259708

H          x =  0.906028  y =  0.923551  z =  4.787942 angstrom
           Maximum rank =  0   Radius =  0.325 angstrom
                   Q00  =   0.252013

H          x =  1.033028  y = -0.683449  z =  5.034942 angstrom
           Maximum rank =  0   Radius =  0.325 angstrom
                   Q00  =   0.254803

H          x =  0.502721  y = -2.338179  z =  2.854422 angstrom
           Maximum rank =  0   Radius =  0.325 angstrom
                   Q00  =   0.109197

Total multipoles referred to origin at
           x =   0.000000,  y =    0.000000,  z =    0.000000 angstrom
                   Q00  =   1.000000

Finished at 12:42:36 on 27 Apr 2020 

  DMA results are available in the Python driver through the
	  variable('DMA DISTRIBUTED MULTIPOLES')
  and
	  variable('DMA TOTAL MULTIPOLES')
  commands.


    Psi4 stopped on: Monday, 27 April 2020 12:42PM
    Psi4 wall time for execution: 0:03:41.39

*** Psi4 exiting successfully. Buy a developer a beer!
