
    -----------------------------------------------------------------------
          Psi4: An Open-Source Ab Initio Electronic Structure Package
                               Psi4 1.3.2 release

                         Git: Rev {HEAD} ecbda83 


    R. M. Parrish, L. A. Burns, D. G. A. Smith, A. C. Simmonett,
    A. E. DePrince III, E. G. Hohenstein, U. Bozkaya, A. Yu. Sokolov,
    R. Di Remigio, R. M. Richard, J. F. Gonthier, A. M. James,
    H. R. McAlexander, A. Kumar, M. Saitow, X. Wang, B. P. Pritchard,
    P. Verma, H. F. Schaefer III, K. Patkowski, R. A. King, E. F. Valeev,
    F. A. Evangelista, J. M. Turney, T. D. Crawford, and C. D. Sherrill,
    J. Chem. Theory Comput. 13(7) pp 3185--3197 (2017).
    (doi: 10.1021/acs.jctc.7b00174)


                         Additional Contributions by
    P. Kraus, H. Kruse, M. H. Lechner, M. C. Schieber, R. A. Shaw,
    A. Alenaizan, R. Galvelis, Z. L. Glick, S. Lehtola, and J. P. Misiewicz

    -----------------------------------------------------------------------


    Psi4 started on: Monday, 27 April 2020 02:12PM

    Process ID: 8994
    Host:       ds3
    PSIDATADIR: /theoryfs2/ds/metcalf/miniconda2/envs/tf2gpu/share/psi4
    Memory:     500.0 MiB
    Threads:    1
    
  ==> Input File <==

--------------------------------------------------------------------------
import numpy as np
set {scf_type pk
basis cc-pvdz
d_convergence 10
gdma_switch   0
gdma_limit    0
gdma_origin   [ 0.0,  0.0,  0.0 ]
}
molecule test {
    units Angstrom
    0 1
    --
    0 1
    C               -1.965430942115686    -3.051960581897944     0.699274421935912
    C               -1.071430942115686    -2.010960581897944     0.024274421935912
    O               -1.572430942115686    -1.313960581897945    -0.888725578064088
    O                0.122569057884314    -1.876960581897944     0.378274421935912
    H               -2.236430942115686    -3.808960581897944    -0.040725578064088
    H               -2.892430942115686    -2.585960581897945     1.032274421935913
    H               -1.500421942115686    -3.570624581897945     1.550594421935912
    C                2.192569057884314     1.292039418102056     1.438274421935912
    C                0.575569057884314     1.724039418102056    -0.400725578064088
    N               -0.355430942115686     1.266039418102056    -1.212725578064088
    N                1.153569057884314     0.905039418102055     0.470274421935912
    N                0.920569057884314     2.996039418102055    -0.471725578064088
    H               -0.673430942115686     0.298039418102055    -1.118725578064087
    H               -0.789430942115686     1.868039418102055    -1.891725578064088
    H                0.858569057884314    -0.070960581897945     0.449274421935912
    H                1.655569057884314     3.350039418102055     0.115274421935912
    H                0.484569057884314     3.606039418102056    -1.146725578064088
    H                2.937569057884315     1.932039418102055     0.960274421935912
    H                2.711569057884315     0.393039418102055     1.778274421935912
    H                1.773989057884314     1.809154318102056     2.314274421935913

}
e, wfn = energy('scf', return_wfn=True)
gdma(wfn)
dmavals = variable('DMA DISTRIBUTED MULTIPOLES')
charges = np.array(dmavals)
print(charges)
np.save('SSI-032GLU-035ARG-1-dimer.npy', np.array(charges))--------------------------------------------------------------------------

*** tstart() called on ds3
*** at Mon Apr 27 14:12:32 2020

   => Loading Basis Set <=

    Name: CC-PVDZ
    Role: ORBITAL
    Keyword: BASIS
    atoms 1-2, 8-9   entry C          line   138 file /theoryfs2/ds/metcalf/miniconda2/envs/tf2gpu/share/psi4/basis/cc-pvdz.gbs 
    atoms 3-4        entry O          line   198 file /theoryfs2/ds/metcalf/miniconda2/envs/tf2gpu/share/psi4/basis/cc-pvdz.gbs 
    atoms 5-7, 13-20 entry H          line    22 file /theoryfs2/ds/metcalf/miniconda2/envs/tf2gpu/share/psi4/basis/cc-pvdz.gbs 
    atoms 10-12      entry N          line   168 file /theoryfs2/ds/metcalf/miniconda2/envs/tf2gpu/share/psi4/basis/cc-pvdz.gbs 


         ---------------------------------------------------------
                                   SCF
               by Justin Turney, Rob Parrish, Andy Simmonett
                          and Daniel G. A. Smith
                              RHF Reference
                        1 Threads,    500 MiB Core
         ---------------------------------------------------------

  ==> Geometry <==

    Molecular point group: c1
    Full point group: C1

    Geometry (in Angstrom), charge = 0, multiplicity = 1:

       Center              X                  Y                   Z               Mass       
    ------------   -----------------  -----------------  -----------------  -----------------
         C           -1.965430942116    -3.051960581898     0.699274421936    12.000000000000
         C           -1.071430942116    -2.010960581898     0.024274421936    12.000000000000
         O           -1.572430942116    -1.313960581898    -0.888725578064    15.994914619570
         O            0.122569057884    -1.876960581898     0.378274421936    15.994914619570
         H           -2.236430942116    -3.808960581898    -0.040725578064     1.007825032230
         H           -2.892430942116    -2.585960581898     1.032274421936     1.007825032230
         H           -1.500421942116    -3.570624581898     1.550594421936     1.007825032230
         C            2.192569057884     1.292039418102     1.438274421936    12.000000000000
         C            0.575569057884     1.724039418102    -0.400725578064    12.000000000000
         N           -0.355430942116     1.266039418102    -1.212725578064    14.003074004430
         N            1.153569057884     0.905039418102     0.470274421936    14.003074004430
         N            0.920569057884     2.996039418102    -0.471725578064    14.003074004430
         H           -0.673430942116     0.298039418102    -1.118725578064     1.007825032230
         H           -0.789430942116     1.868039418102    -1.891725578064     1.007825032230
         H            0.858569057884    -0.070960581898     0.449274421936     1.007825032230
         H            1.655569057884     3.350039418102     0.115274421936     1.007825032230
         H            0.484569057884     3.606039418102    -1.146725578064     1.007825032230
         H            2.937569057884     1.932039418102     0.960274421936     1.007825032230
         H            2.711569057884     0.393039418102     1.778274421936     1.007825032230
         H            1.773989057884     1.809154318102     2.314274421936     1.007825032230

  Running in c1 symmetry.

  Rotational constants: A =      0.09458  B =      0.02434  C =      0.02002 [cm^-1]
  Rotational constants: A =   2835.29975  B =    729.66958  C =    600.10144 [MHz]
  Nuclear repulsion =  462.231376374209106

  Charge       = 0
  Multiplicity = 1
  Electrons    = 72
  Nalpha       = 36
  Nbeta        = 36

  ==> Algorithm <==

  SCF Algorithm Type is PK.
  DIIS enabled.
  MOM disabled.
  Fractional occupation disabled.
  Guess Type is SAD.
  Energy threshold   = 1.00e-06
  Density threshold  = 1.00e-10
  Integral threshold = 0.00e+00

  ==> Primary Basis <==

  Basis Set: CC-PVDZ
    Blend: CC-PVDZ
    Number of shells: 87
    Number of basis function: 181
    Number of Cartesian functions: 190
    Spherical Harmonics?: true
    Max angular momentum: 2

  ==> Pre-Iterations <==

   -------------------------------------------------------
    Irrep   Nso     Nmo     Nalpha   Nbeta   Ndocc  Nsocc
   -------------------------------------------------------
     A        181     181       0       0       0       0
   -------------------------------------------------------
    Total     181     181      36      36      36       0
   -------------------------------------------------------

  ==> Integral Setup <==

  Using integral reordering PK algorithm.
  Sizing the integral batches needed.
  Building batch lookup table.
   Calculation information:
      Number of atoms:                  20
      Number of AO shells:              87
      Number of primitives:            253
      Number of atomic orbitals:       190
      Number of basis functions:       181

      Integral cutoff                 1.00e-12
      Number of threads:                 1

	Batch   1 pq = [       0,    9405] index = [             0,44231715] size =     44231715
	Batch   2 pq = [    9405,   13301] index = [      44231715,88464951] size =     44233236
	Batch   3 pq = [   13301,   16471] index = [      88464951,135655156] size =     47190205
  Task number: 13
  Buffer size: 11059200
  Buffer per thread: 2
  We computed 5878610 shell quartets total.
  Whereas there are 7328706 unique shell quartets.

  ==> DiskJK: Disk-Based J/K Matrices <==

    J tasked:                  Yes
    K tasked:                  Yes
    wK tasked:                  No
    Memory [MiB]:              375
    Schwarz Cutoff:          1E-12

    OpenMP threads:              1

  Minimum eigenvalue in the overlap matrix is 3.7860770737E-03.
  Using Symmetric Orthogonalization.

  SCF Guess: Superposition of Atomic Densities via on-the-fly atomic UHF.

  ==> Iterations <==

                        Total Energy        Delta E     RMS |[F,P]|

   @RHF iter SAD:  -469.67694837201520   -4.69677e+02   0.00000e+00 
   @RHF iter   1:  -470.72752583090880   -1.05058e+00   4.19088e-03 DIIS
   @RHF iter   2:  -470.94717098052899   -2.19645e-01   2.17400e-03 DIIS
   @RHF iter   3:  -471.00344356102931   -5.62726e-02   3.88789e-04 DIIS
   @RHF iter   4:  -471.00657892051595   -3.13536e-03   1.29235e-04 DIIS
   @RHF iter   5:  -471.00692985265579   -3.50932e-04   2.31306e-05 DIIS
   @RHF iter   6:  -471.00694636302183   -1.65104e-05   7.31346e-06 DIIS
   @RHF iter   7:  -471.00694766895953   -1.30594e-06   2.04125e-06 DIIS
   @RHF iter   8:  -471.00694781694335   -1.47984e-07   7.95928e-07 DIIS
   @RHF iter   9:  -471.00694783136413   -1.44208e-08   2.87296e-07 DIIS
   @RHF iter  10:  -471.00694783339947   -2.03534e-09   8.05592e-08 DIIS
   @RHF iter  11:  -471.00694783366401   -2.64549e-10   2.46297e-08 DIIS
   @RHF iter  12:  -471.00694783369778   -3.37650e-11   1.16698e-08 DIIS
   @RHF iter  13:  -471.00694783370551   -7.73070e-12   4.01650e-09 DIIS
   @RHF iter  14:  -471.00694783370437    1.13687e-12   1.09792e-09 DIIS
   @RHF iter  15:  -471.00694783370335    1.02318e-12   4.01555e-10 DIIS
   @RHF iter  16:  -471.00694783370409   -7.38964e-13   1.35176e-10 DIIS
   @RHF iter  17:  -471.00694783370693   -2.84217e-12   5.58749e-11 DIIS
  Energy and wave function converged.


  ==> Post-Iterations <==

    Orbital Energies [Eh]
    ---------------------

    Doubly Occupied:                                                      

       1A    -20.425061     2A    -20.423296     3A    -15.649756  
       4A    -15.614878     5A    -15.606416     6A    -11.428835  
       7A    -11.309286     8A    -11.273656     9A    -11.174087  
      10A     -1.386576    11A     -1.313778    12A     -1.245221  
      13A     -1.227142    14A     -1.197263    15A     -0.995140  
      16A     -0.922748    17A     -0.883961    18A     -0.820544  
      19A     -0.781403    20A     -0.709458    21A     -0.692767  
      22A     -0.672146    23A     -0.647332    24A     -0.637155  
      25A     -0.603295    26A     -0.584455    27A     -0.558323  
      28A     -0.547043    29A     -0.538829    30A     -0.482341  
      31A     -0.467184    32A     -0.452151    33A     -0.421191  
      34A     -0.344691    35A     -0.334630    36A     -0.328141  

    Virtual:                                                              

      37A      0.123421    38A      0.155300    39A      0.178081  
      40A      0.206959    41A      0.212368    42A      0.235941  
      43A      0.246611    44A      0.249510    45A      0.273125  
      46A      0.292463    47A      0.308410    48A      0.345012  
      49A      0.362649    50A      0.403261    51A      0.430162  
      52A      0.451122    53A      0.481586    54A      0.490843  
      55A      0.578720    56A      0.594326    57A      0.608387  
      58A      0.615096    59A      0.660476    60A      0.670579  
      61A      0.674425    62A      0.690093    63A      0.698490  
      64A      0.717040    65A      0.726178    66A      0.768702  
      67A      0.809384    68A      0.811149    69A      0.826190  
      70A      0.837573    71A      0.839884    72A      0.852074  
      73A      0.892325    74A      0.908320    75A      0.912063  
      76A      0.919219    77A      0.929601    78A      0.944959  
      79A      0.956799    80A      0.970881    81A      0.984504  
      82A      0.995899    83A      1.047977    84A      1.070611  
      85A      1.088140    86A      1.104326    87A      1.114771  
      88A      1.142741    89A      1.203120    90A      1.218111  
      91A      1.243042    92A      1.267945    93A      1.287813  
      94A      1.300387    95A      1.328055    96A      1.340783  
      97A      1.362828    98A      1.383062    99A      1.407897  
     100A      1.425460   101A      1.455916   102A      1.479183  
     103A      1.495380   104A      1.540777   105A      1.562447  
     106A      1.575695   107A      1.613124   108A      1.619148  
     109A      1.658846   110A      1.678766   111A      1.704678  
     112A      1.715945   113A      1.729852   114A      1.737220  
     115A      1.806485   116A      1.819995   117A      1.856614  
     118A      1.874593   119A      1.891095   120A      1.899468  
     121A      1.915995   122A      1.928920   123A      1.939512  
     124A      1.954680   125A      1.965632   126A      1.970896  
     127A      1.985091   128A      1.994406   129A      2.017645  
     130A      2.073996   131A      2.090548   132A      2.135783  
     133A      2.164507   134A      2.170594   135A      2.189623  
     136A      2.228129   137A      2.277001   138A      2.283381  
     139A      2.287543   140A      2.344504   141A      2.347403  
     142A      2.417105   143A      2.419828   144A      2.438601  
     145A      2.473131   146A      2.477284   147A      2.489543  
     148A      2.522727   149A      2.571991   150A      2.579843  
     151A      2.602853   152A      2.626758   153A      2.643284  
     154A      2.712442   155A      2.724564   156A      2.738261  
     157A      2.791821   158A      2.795524   159A      2.849841  
     160A      2.868004   161A      2.873582   162A      2.911956  
     163A      2.943220   164A      2.975607   165A      2.992804  
     166A      3.032234   167A      3.098033   168A      3.136100  
     169A      3.145898   170A      3.190660   171A      3.229659  
     172A      3.281442   173A      3.362381   174A      3.485954  
     175A      3.622685   176A      3.656876   177A      3.733751  
     178A      3.815080   179A      3.919476   180A      3.934110  
     181A      4.065430  

    Final Occupation by Irrep:
              A 
    DOCC [    36 ]

  @RHF Final Energy:  -471.00694783370693

   => Energetics <=

    Nuclear Repulsion Energy =            462.2313763742091055
    One-Electron Energy =               -1561.0762874972076588
    Two-Electron Energy =                 627.8379632892916788
    Total Energy =                       -471.0069478337069313

Computation Completed


Properties will be evaluated at   0.000000,   0.000000,   0.000000 [a0]

Properties computed using the SCF density matrix

  Nuclear Dipole Moment: [e a0]
     X:     2.1721      Y:     2.9882      Z:     3.7531

  Electronic Dipole Moment: [e a0]
     X:    -0.4561      Y:     1.4512      Z:    -3.6007

  Dipole Moment: [e a0]
     X:     1.7160      Y:     4.4394      Z:     0.1525     Total:     4.7620

  Dipole Moment: [D]
     X:     4.3615      Y:    11.2839      Z:     0.3876     Total:    12.1037


*** tstop() called on ds3 at Mon Apr 27 14:13:36 2020
Module time:
	user time   =      45.31 seconds =       0.76 minutes
	system time =      21.76 seconds =       0.36 minutes
	total time  =         64 seconds =       1.07 minutes
Total time:
	user time   =      45.31 seconds =       0.76 minutes
	system time =      21.76 seconds =       0.36 minutes
	total time  =         64 seconds =       1.07 minutes
                                     G D M A

                                 by Anthony Stone

                           version 2.2.06, 22 June 2011

               Distributed Multipoles from Gaussian wavefunctions


Starting at 14:13:36 on 27 Apr 2020 


Using SCF density matrix from file ./SSI/SSI-032GLU-035ARG-1-dimer.test.8994.fchk


                         Distributed Multipole Analysis

Standard DMA

Positions and radii in angstrom
Multipole moments in atomic units, ea_0^k for rank k

C          x = -1.965431  y = -3.051961  z =  0.699274 angstrom
           Maximum rank =  0   Radius =  0.650 angstrom
                   Q00  =  -0.263400

C          x = -1.071431  y = -2.010961  z =  0.024274 angstrom
           Maximum rank =  0   Radius =  0.650 angstrom
                   Q00  =   0.884351

O          x = -1.572431  y = -1.313961  z = -0.888726 angstrom
           Maximum rank =  0   Radius =  0.650 angstrom
                   Q00  =  -0.930698

O          x =  0.122569  y = -1.876961  z =  0.378274 angstrom
           Maximum rank =  0   Radius =  0.650 angstrom
                   Q00  =  -0.931583

H          x = -2.236431  y = -3.808961  z = -0.040726 angstrom
           Maximum rank =  0   Radius =  0.325 angstrom
                   Q00  =   0.105229

H          x = -2.892431  y = -2.585961  z =  1.032274 angstrom
           Maximum rank =  0   Radius =  0.325 angstrom
                   Q00  =   0.091138

H          x = -1.500422  y = -3.570625  z =  1.550594 angstrom
           Maximum rank =  0   Radius =  0.325 angstrom
                   Q00  =   0.077790

C          x =  2.192569  y =  1.292039  z =  1.438274 angstrom
           Maximum rank =  0   Radius =  0.650 angstrom
                   Q00  =  -0.108215

C          x =  0.575569  y =  1.724039  z = -0.400726 angstrom
           Maximum rank =  0   Radius =  0.650 angstrom
                   Q00  =   1.065919

N          x = -0.355431  y =  1.266039  z = -1.212726 angstrom
           Maximum rank =  0   Radius =  0.650 angstrom
                   Q00  =  -0.603227

N          x =  1.153569  y =  0.905039  z =  0.470274 angstrom
           Maximum rank =  0   Radius =  0.650 angstrom
                   Q00  =  -0.511435

N          x =  0.920569  y =  2.996039  z = -0.471726 angstrom
           Maximum rank =  0   Radius =  0.650 angstrom
                   Q00  =  -0.581642

H          x = -0.673431  y =  0.298039  z = -1.118726 angstrom
           Maximum rank =  0   Radius =  0.325 angstrom
                   Q00  =   0.346475

H          x = -0.789431  y =  1.868039  z = -1.891726 angstrom
           Maximum rank =  0   Radius =  0.325 angstrom
                   Q00  =   0.224971

H          x =  0.858569  y = -0.070961  z =  0.449274 angstrom
           Maximum rank =  0   Radius =  0.325 angstrom
                   Q00  =   0.313599

H          x =  1.655569  y =  3.350039  z =  0.115274 angstrom
           Maximum rank =  0   Radius =  0.325 angstrom
                   Q00  =   0.241731

H          x =  0.484569  y =  3.606039  z = -1.146726 angstrom
           Maximum rank =  0   Radius =  0.325 angstrom
                   Q00  =   0.241236

H          x =  2.937569  y =  1.932039  z =  0.960274 angstrom
           Maximum rank =  0   Radius =  0.325 angstrom
                   Q00  =   0.078218

H          x =  2.711569  y =  0.393039  z =  1.778274 angstrom
           Maximum rank =  0   Radius =  0.325 angstrom
                   Q00  =   0.159895

H          x =  1.773989  y =  1.809154  z =  2.314274 angstrom
           Maximum rank =  0   Radius =  0.325 angstrom
                   Q00  =   0.099646

Total multipoles referred to origin at
           x =   0.000000,  y =    0.000000,  z =    0.000000 angstrom
                   Q00  =  -0.000000

Finished at 14:13:36 on 27 Apr 2020 

  DMA results are available in the Python driver through the
	  variable('DMA DISTRIBUTED MULTIPOLES')
  and
	  variable('DMA TOTAL MULTIPOLES')
  commands.


    Psi4 stopped on: Monday, 27 April 2020 02:13PM
    Psi4 wall time for execution: 0:01:04.77

*** Psi4 exiting successfully. Buy a developer a beer!
