
    -----------------------------------------------------------------------
          Psi4: An Open-Source Ab Initio Electronic Structure Package
                               Psi4 1.3.2 release

                         Git: Rev {HEAD} ecbda83 


    R. M. Parrish, L. A. Burns, D. G. A. Smith, A. C. Simmonett,
    A. E. DePrince III, E. G. Hohenstein, U. Bozkaya, A. Yu. Sokolov,
    R. Di Remigio, R. M. Richard, J. F. Gonthier, A. M. James,
    H. R. McAlexander, A. Kumar, M. Saitow, X. Wang, B. P. Pritchard,
    P. Verma, H. F. Schaefer III, K. Patkowski, R. A. King, E. F. Valeev,
    F. A. Evangelista, J. M. Turney, T. D. Crawford, and C. D. Sherrill,
    J. Chem. Theory Comput. 13(7) pp 3185--3197 (2017).
    (doi: 10.1021/acs.jctc.7b00174)


                         Additional Contributions by
    P. Kraus, H. Kruse, M. H. Lechner, M. C. Schieber, R. A. Shaw,
    A. Alenaizan, R. Galvelis, Z. L. Glick, S. Lehtola, and J. P. Misiewicz

    -----------------------------------------------------------------------


    Psi4 started on: Sunday, 26 April 2020 06:47PM

    Process ID: 17264
    Host:       ds3
    PSIDATADIR: /theoryfs2/ds/metcalf/miniconda2/envs/tf2gpu/share/psi4
    Memory:     500.0 MiB
    Threads:    1
    
  ==> Input File <==

--------------------------------------------------------------------------
import numpy as np
set {scf_type pk
basis cc-pvdz
d_convergence 10
gdma_switch   0
gdma_limit    0
gdma_origin   [ 0.0,  0.0,  0.0 ]
}
molecule test {
    units Angstrom
    0 1
    --
    0 1
    C               -1.999676752015872     0.444884962560500     1.927008214117592
    C               -0.074676752015872     0.736884962560500     0.383008214117592
    C               -0.589676752015872     0.129884962560500     1.501008214117592
    C                1.198323247984128     0.455884962560500    -0.071991785882408
    C                2.008323247984128    -0.393115037439500     0.646008214117592
    C                0.234323247984128    -0.712115037439500     2.249008214117592
    C                1.538323247984128    -0.981115037439500     1.815008214117592
    H               -0.689676752015872     1.423884962560500    -0.181991785882408
    H                1.570323247984128     0.922884962560500    -0.972991785882408
    H               -2.500676752015871    -0.485115037439500     2.199008214117592
    H               -2.544676752015872     0.872884962560500     1.084008214117592
    H                3.010323247984128    -0.605115037439500     0.299008214117592
    H               -0.140676752015872    -1.193115037439500     3.141008214117592
    H                2.169323247984128    -1.653115037439500     2.377008214117593
    H               -2.046776752015872     1.143368962560500     2.775478214117592
    C               -0.631676752015872     0.453884962560500    -3.080991785882408
    C               -1.136676752015872    -0.230115037439500    -4.385991785882407
    H                0.439323247984128     0.644884962560500    -3.160991785882408
    H               -1.143676752015872     1.405884962560500    -2.952991785882408
    H               -0.825676752015872    -0.180115037439500    -2.218991785882408
    H               -1.069676752015872     0.472884962560500    -5.214991785882408
    H               -0.545946752015872    -1.131575037439500    -4.605999785882407
    H               -2.193786752015872    -0.506959037439500    -4.259954785882407

}
e, wfn = energy('scf', return_wfn=True)
gdma(wfn)
dmavals = variable('DMA DISTRIBUTED MULTIPOLES')
charges = np.array(dmavals)
print(charges)
np.save('SSI-006PHE-050VAL-1-dimer.npy', np.array(charges))--------------------------------------------------------------------------

*** tstart() called on ds3
*** at Sun Apr 26 18:47:50 2020

   => Loading Basis Set <=

    Name: CC-PVDZ
    Role: ORBITAL
    Keyword: BASIS
    atoms 1-7, 16-17  entry C          line   138 file /theoryfs2/ds/metcalf/miniconda2/envs/tf2gpu/share/psi4/basis/cc-pvdz.gbs 
    atoms 8-15, 18-23 entry H          line    22 file /theoryfs2/ds/metcalf/miniconda2/envs/tf2gpu/share/psi4/basis/cc-pvdz.gbs 


         ---------------------------------------------------------
                                   SCF
               by Justin Turney, Rob Parrish, Andy Simmonett
                          and Daniel G. A. Smith
                              RHF Reference
                        1 Threads,    500 MiB Core
         ---------------------------------------------------------

  ==> Geometry <==

    Molecular point group: c1
    Full point group: C1

    Geometry (in Angstrom), charge = 0, multiplicity = 1:

       Center              X                  Y                   Z               Mass       
    ------------   -----------------  -----------------  -----------------  -----------------
         C           -1.999676752016     0.444884962561     1.927008214118    12.000000000000
         C           -0.074676752016     0.736884962561     0.383008214118    12.000000000000
         C           -0.589676752016     0.129884962561     1.501008214118    12.000000000000
         C            1.198323247984     0.455884962561    -0.071991785882    12.000000000000
         C            2.008323247984    -0.393115037439     0.646008214118    12.000000000000
         C            0.234323247984    -0.712115037439     2.249008214118    12.000000000000
         C            1.538323247984    -0.981115037439     1.815008214118    12.000000000000
         H           -0.689676752016     1.423884962560    -0.181991785882     1.007825032230
         H            1.570323247984     0.922884962561    -0.972991785882     1.007825032230
         H           -2.500676752016    -0.485115037439     2.199008214118     1.007825032230
         H           -2.544676752016     0.872884962561     1.084008214118     1.007825032230
         H            3.010323247984    -0.605115037439     0.299008214118     1.007825032230
         H           -0.140676752016    -1.193115037440     3.141008214118     1.007825032230
         H            2.169323247984    -1.653115037440     2.377008214118     1.007825032230
         H           -2.046776752016     1.143368962560     2.775478214118     1.007825032230
         C           -0.631676752016     0.453884962561    -3.080991785882    12.000000000000
         C           -1.136676752016    -0.230115037439    -4.385991785882    12.000000000000
         H            0.439323247984     0.644884962561    -3.160991785882     1.007825032230
         H           -1.143676752016     1.405884962561    -2.952991785882     1.007825032230
         H           -0.825676752016    -0.180115037439    -2.218991785882     1.007825032230
         H           -1.069676752016     0.472884962561    -5.214991785882     1.007825032230
         H           -0.545946752016    -1.131575037439    -4.605999785882     1.007825032230
         H           -2.193786752016    -0.506959037439    -4.259954785882     1.007825032230

  Running in c1 symmetry.

  Rotational constants: A =      0.07158  B =      0.02395  C =      0.01947 [cm^-1]
  Rotational constants: A =   2145.83967  B =    718.08130  C =    583.58217 [MHz]
  Nuclear repulsion =  405.738702828878331

  Charge       = 0
  Multiplicity = 1
  Electrons    = 68
  Nalpha       = 34
  Nbeta        = 34

  ==> Algorithm <==

  SCF Algorithm Type is PK.
  DIIS enabled.
  MOM disabled.
  Fractional occupation disabled.
  Guess Type is SAD.
  Energy threshold   = 1.00e-06
  Density threshold  = 1.00e-10
  Integral threshold = 0.00e+00

  ==> Primary Basis <==

  Basis Set: CC-PVDZ
    Blend: CC-PVDZ
    Number of shells: 96
    Number of basis function: 196
    Number of Cartesian functions: 205
    Spherical Harmonics?: true
    Max angular momentum: 2

  ==> Pre-Iterations <==

   -------------------------------------------------------
    Irrep   Nso     Nmo     Nalpha   Nbeta   Ndocc  Nsocc
   -------------------------------------------------------
     A        196     196       0       0       0       0
   -------------------------------------------------------
    Total     196     196      34      34      34       0
   -------------------------------------------------------

  ==> Integral Setup <==

  Using integral reordering PK algorithm.
  Sizing the integral batches needed.
  Building batch lookup table.
   Calculation information:
      Number of atoms:                  23
      Number of AO shells:              96
      Number of primitives:            268
      Number of atomic orbitals:       205
      Number of basis functions:       196

      Integral cutoff                 1.00e-12
      Number of threads:                 1

	Batch   1 pq = [       0,    9405] index = [             0,44231715] size =     44231715
	Batch   2 pq = [    9405,   13301] index = [      44231715,88464951] size =     44233236
	Batch   3 pq = [   13301,   16290] index = [      88464951,132690195] size =     44225244
	Batch   4 pq = [   16290,   18810] index = [     132690195,176917455] size =     44227260
	Batch   5 pq = [   18810,   19306] index = [     176917455,186370471] size =      9453016
  Task number: 17
  Buffer size: 11059200
  Buffer per thread: 2
  We computed 9237991 shell quartets total.
  Whereas there are 10841496 unique shell quartets.

  ==> DiskJK: Disk-Based J/K Matrices <==

    J tasked:                  Yes
    K tasked:                  Yes
    wK tasked:                  No
    Memory [MiB]:              375
    Schwarz Cutoff:          1E-12

    OpenMP threads:              1

  Minimum eigenvalue in the overlap matrix is 3.0095637476E-04.
  Using Symmetric Orthogonalization.

  SCF Guess: Superposition of Atomic Densities via on-the-fly atomic UHF.

  ==> Iterations <==

                        Total Energy        Delta E     RMS |[F,P]|

   @RHF iter SAD:  -347.91525373610085   -3.47915e+02   0.00000e+00 
   @RHF iter   1:  -348.76552759610775   -8.50274e-01   2.89124e-03 DIIS
   @RHF iter   2:  -348.95800267963898   -1.92475e-01   1.19696e-03 DIIS
   @RHF iter   3:  -348.98801677751703   -3.00141e-02   2.60561e-04 DIIS
   @RHF iter   4:  -348.99048949175733   -2.47271e-03   5.76756e-05 DIIS
   @RHF iter   5:  -348.99057465359334   -8.51618e-05   1.89235e-05 DIIS
   @RHF iter   6:  -348.99058365263875   -8.99905e-06   5.02295e-06 DIIS
   @RHF iter   7:  -348.99058442541258   -7.72774e-07   1.35352e-06 DIIS
   @RHF iter   8:  -348.99058451146345   -8.60509e-08   4.54310e-07 DIIS
   @RHF iter   9:  -348.99058453301961   -2.15562e-08   2.23784e-07 DIIS
   @RHF iter  10:  -348.99058453879633   -5.77671e-09   1.04441e-07 DIIS
   @RHF iter  11:  -348.99058454016978   -1.37345e-09   3.30692e-08 DIIS
   @RHF iter  12:  -348.99058454026652   -9.67475e-11   1.46271e-08 DIIS
   @RHF iter  13:  -348.99058454027869   -1.21645e-11   3.94615e-09 DIIS
   @RHF iter  14:  -348.99058454028011   -1.42109e-12   1.22723e-09 DIIS
   @RHF iter  15:  -348.99058454028000    1.13687e-13   5.55919e-10 DIIS
   @RHF iter  16:  -348.99058454027937    6.25278e-13   2.42358e-10 DIIS
   @RHF iter  17:  -348.99058454028039   -1.02318e-12   8.74154e-11 DIIS
  Energy and wave function converged.


  ==> Post-Iterations <==

    Orbital Energies [Eh]
    ---------------------

    Doubly Occupied:                                                      

       1A    -11.236818     2A    -11.234965     3A    -11.230928  
       4A    -11.229748     5A    -11.228755     6A    -11.227706  
       7A    -11.223847     8A    -11.219845     9A    -11.216670  
      10A     -1.155905    11A     -1.045674    12A     -1.012755  
      13A     -1.008851    14A     -0.931258    15A     -0.838594  
      16A     -0.825716    17A     -0.794841    18A     -0.691351  
      19A     -0.632062    20A     -0.628478    21A     -0.595372  
      22A     -0.592648    23A     -0.581610    24A     -0.576710  
      25A     -0.562142    26A     -0.533842    27A     -0.496147  
      28A     -0.491041    29A     -0.488908    30A     -0.483599  
      31A     -0.480664    32A     -0.479132    33A     -0.330428  
      34A     -0.323725  

    Virtual:                                                              

      35A      0.136544    36A      0.145154    37A      0.175577  
      38A      0.194672    39A      0.201363    40A      0.213531  
      41A      0.235522    42A      0.244879    43A      0.260500  
      44A      0.262043    45A      0.272016    46A      0.276292  
      47A      0.281739    48A      0.286517    49A      0.313000  
      50A      0.329476    51A      0.368514    52A      0.372002  
      53A      0.402078    54A      0.459144    55A      0.464835  
      56A      0.481409    57A      0.500827    58A      0.561108  
      59A      0.593440    60A      0.595837    61A      0.598860  
      62A      0.627392    63A      0.646606    64A      0.674377  
      65A      0.680488    66A      0.690003    67A      0.698838  
      68A      0.707225    69A      0.720203    70A      0.739184  
      71A      0.745373    72A      0.750907    73A      0.761607  
      74A      0.778313    75A      0.786162    76A      0.808279  
      77A      0.828395    78A      0.846570    79A      0.865678  
      80A      0.866788    81A      0.882117    82A      0.889030  
      83A      0.892662    84A      0.896651    85A      0.901286  
      86A      0.914470    87A      0.922900    88A      0.924844  
      89A      0.931468    90A      0.939798    91A      0.952375  
      92A      0.972954    93A      0.989695    94A      1.008535  
      95A      1.026252    96A      1.062712    97A      1.115529  
      98A      1.128971    99A      1.131240   100A      1.150587  
     101A      1.163342   102A      1.175817   103A      1.197650  
     104A      1.220901   105A      1.233826   106A      1.251875  
     107A      1.261050   108A      1.280375   109A      1.305245  
     110A      1.311024   111A      1.329945   112A      1.341437  
     113A      1.415670   114A      1.473398   115A      1.479666  
     116A      1.516225   117A      1.527893   118A      1.560109  
     119A      1.591444   120A      1.605335   121A      1.673662  
     122A      1.682802   123A      1.692198   124A      1.698847  
     125A      1.741245   126A      1.747693   127A      1.766288  
     128A      1.793214   129A      1.822827   130A      1.858649  
     131A      1.869550   132A      1.888406   133A      1.891401  
     134A      1.897041   135A      1.902831   136A      1.911421  
     137A      1.919140   138A      1.925669   139A      1.935345  
     140A      1.941446   141A      1.944979   142A      1.948406  
     143A      1.956553   144A      1.964381   145A      1.984544  
     146A      1.993832   147A      2.001450   148A      2.019206  
     149A      2.050693   150A      2.064232   151A      2.092013  
     152A      2.107899   153A      2.116377   154A      2.129589  
     155A      2.141036   156A      2.165345   157A      2.172209  
     158A      2.178712   159A      2.201062   160A      2.253782  
     161A      2.279611   162A      2.288910   163A      2.296065  
     164A      2.305840   165A      2.329025   166A      2.333053  
     167A      2.352589   168A      2.453007   169A      2.459663  
     170A      2.464826   171A      2.487782   172A      2.513243  
     173A      2.549585   174A      2.564938   175A      2.576158  
     176A      2.632846   177A      2.742089   178A      2.757313  
     179A      2.763606   180A      2.769228   181A      2.790511  
     182A      2.801833   183A      2.823884   184A      2.836511  
     185A      2.849358   186A      2.858901   187A      2.878479  
     188A      2.944256   189A      2.958948   190A      2.995265  
     191A      3.017235   192A      3.035865   193A      3.168943  
     194A      3.215880   195A      3.314233   196A      3.986338  

    Final Occupation by Irrep:
              A 
    DOCC [    34 ]

  @RHF Final Energy:  -348.99058454028039

   => Energetics <=

    Nuclear Repulsion Energy =            405.7387028288783313
    One-Electron Energy =               -1274.1971027747013068
    Two-Electron Energy =                 519.4678154055425239
    Total Energy =                       -348.9905845402804516

Computation Completed


Properties will be evaluated at   0.000000,   0.000000,   0.000000 [a0]

Properties computed using the SCF density matrix

  Nuclear Dipole Moment: [e a0]
     X:    -6.1048      Y:     1.0608      Z:   -10.9622

  Electronic Dipole Moment: [e a0]
     X:     5.9959      Y:    -1.0511      Z:    11.0102

  Dipole Moment: [e a0]
     X:    -0.1088      Y:     0.0097      Z:     0.0480     Total:     0.1193

  Dipole Moment: [D]
     X:    -0.2766      Y:     0.0247      Z:     0.1221     Total:     0.3033


*** tstop() called on ds3 at Sun Apr 26 18:49:18 2020
Module time:
	user time   =      62.32 seconds =       1.04 minutes
	system time =      28.03 seconds =       0.47 minutes
	total time  =         88 seconds =       1.47 minutes
Total time:
	user time   =      62.32 seconds =       1.04 minutes
	system time =      28.03 seconds =       0.47 minutes
	total time  =         88 seconds =       1.47 minutes
                                     G D M A

                                 by Anthony Stone

                           version 2.2.06, 22 June 2011

               Distributed Multipoles from Gaussian wavefunctions


Starting at 18:49:18 on 26 Apr 2020 


Using SCF density matrix from file ./SSI/SSI-006PHE-050VAL-1-dimer.test.17264.fchk


                         Distributed Multipole Analysis

Standard DMA

Positions and radii in angstrom
Multipole moments in atomic units, ea_0^k for rank k

C          x = -1.999677  y =  0.444885  z =  1.927008 angstrom
           Maximum rank =  0   Radius =  0.650 angstrom
                   Q00  =  -0.209466

C          x = -0.074677  y =  0.736885  z =  0.383008 angstrom
           Maximum rank =  0   Radius =  0.650 angstrom
                   Q00  =   0.015642

C          x = -0.589677  y =  0.129885  z =  1.501008 angstrom
           Maximum rank =  0   Radius =  0.650 angstrom
                   Q00  =  -0.096893

C          x =  1.198323  y =  0.455885  z = -0.071992 angstrom
           Maximum rank =  0   Radius =  0.650 angstrom
                   Q00  =  -0.071699

C          x =  2.008323  y = -0.393115  z =  0.646008 angstrom
           Maximum rank =  0   Radius =  0.650 angstrom
                   Q00  =  -0.085147

C          x =  0.234323  y = -0.712115  z =  2.249008 angstrom
           Maximum rank =  0   Radius =  0.650 angstrom
                   Q00  =  -0.096855

C          x =  1.538323  y = -0.981115  z =  1.815008 angstrom
           Maximum rank =  0   Radius =  0.650 angstrom
                   Q00  =  -0.052848

H          x = -0.689677  y =  1.423885  z = -0.181992 angstrom
           Maximum rank =  0   Radius =  0.325 angstrom
                   Q00  =   0.053413

H          x =  1.570323  y =  0.922885  z = -0.972992 angstrom
           Maximum rank =  0   Radius =  0.325 angstrom
                   Q00  =   0.062488

H          x = -2.500677  y = -0.485115  z =  2.199008 angstrom
           Maximum rank =  0   Radius =  0.325 angstrom
                   Q00  =   0.099518

H          x = -2.544677  y =  0.872885  z =  1.084008 angstrom
           Maximum rank =  0   Radius =  0.325 angstrom
                   Q00  =   0.096709

H          x =  3.010323  y = -0.605115  z =  0.299008 angstrom
           Maximum rank =  0   Radius =  0.325 angstrom
                   Q00  =   0.058221

H          x = -0.140677  y = -1.193115  z =  3.141008 angstrom
           Maximum rank =  0   Radius =  0.325 angstrom
                   Q00  =   0.057066

H          x =  2.169323  y = -1.653115  z =  2.377008 angstrom
           Maximum rank =  0   Radius =  0.325 angstrom
                   Q00  =   0.065151

H          x = -2.046777  y =  1.143369  z =  2.775478 angstrom
           Maximum rank =  0   Radius =  0.325 angstrom
                   Q00  =   0.104274

C          x = -0.631677  y =  0.453885  z = -3.080992 angstrom
           Maximum rank =  0   Radius =  0.650 angstrom
                   Q00  =  -0.259122

C          x = -1.136677  y = -0.230115  z = -4.385992 angstrom
           Maximum rank =  0   Radius =  0.650 angstrom
                   Q00  =  -0.231472

H          x =  0.439323  y =  0.644885  z = -3.160992 angstrom
           Maximum rank =  0   Radius =  0.325 angstrom
                   Q00  =   0.077840

H          x = -1.143677  y =  1.405885  z = -2.952992 angstrom
           Maximum rank =  0   Radius =  0.325 angstrom
                   Q00  =   0.076490

H          x = -0.825677  y = -0.180115  z = -2.218992 angstrom
           Maximum rank =  0   Radius =  0.325 angstrom
                   Q00  =   0.093026

H          x = -1.069677  y =  0.472885  z = -5.214992 angstrom
           Maximum rank =  0   Radius =  0.325 angstrom
                   Q00  =   0.080998

H          x = -0.545947  y = -1.131575  z = -4.606000 angstrom
           Maximum rank =  0   Radius =  0.325 angstrom
                   Q00  =   0.083504

H          x = -2.193787  y = -0.506959  z = -4.259955 angstrom
           Maximum rank =  0   Radius =  0.325 angstrom
                   Q00  =   0.079158

Total multipoles referred to origin at
           x =   0.000000,  y =    0.000000,  z =    0.000000 angstrom
                   Q00  =  -0.000000

Finished at 18:49:18 on 26 Apr 2020 

  DMA results are available in the Python driver through the
	  variable('DMA DISTRIBUTED MULTIPOLES')
  and
	  variable('DMA TOTAL MULTIPOLES')
  commands.


    Psi4 stopped on: Sunday, 26 April 2020 06:49PM
    Psi4 wall time for execution: 0:01:27.84

*** Psi4 exiting successfully. Buy a developer a beer!
