
    -----------------------------------------------------------------------
          Psi4: An Open-Source Ab Initio Electronic Structure Package
                               Psi4 1.3.2 release

                         Git: Rev {HEAD} ecbda83 


    R. M. Parrish, L. A. Burns, D. G. A. Smith, A. C. Simmonett,
    A. E. DePrince III, E. G. Hohenstein, U. Bozkaya, A. Yu. Sokolov,
    R. Di Remigio, R. M. Richard, J. F. Gonthier, A. M. James,
    H. R. McAlexander, A. Kumar, M. Saitow, X. Wang, B. P. Pritchard,
    P. Verma, H. F. Schaefer III, K. Patkowski, R. A. King, E. F. Valeev,
    F. A. Evangelista, J. M. Turney, T. D. Crawford, and C. D. Sherrill,
    J. Chem. Theory Comput. 13(7) pp 3185--3197 (2017).
    (doi: 10.1021/acs.jctc.7b00174)


                         Additional Contributions by
    P. Kraus, H. Kruse, M. H. Lechner, M. C. Schieber, R. A. Shaw,
    A. Alenaizan, R. Galvelis, Z. L. Glick, S. Lehtola, and J. P. Misiewicz

    -----------------------------------------------------------------------


    Psi4 started on: Monday, 27 April 2020 04:38PM

    Process ID: 27500
    Host:       ds3
    PSIDATADIR: /theoryfs2/ds/metcalf/miniconda2/envs/tf2gpu/share/psi4
    Memory:     500.0 MiB
    Threads:    1
    
  ==> Input File <==

--------------------------------------------------------------------------
import numpy as np
set {scf_type pk
basis cc-pvdz
d_convergence 10
gdma_switch   0
gdma_limit    0
gdma_origin   [ 0.0,  0.0,  0.0 ]
}
molecule test {
    units Angstrom
    0 1
    --
    0 1
    C               -0.872968800518642    -1.238261661626189    -1.203736236138236
    C               -1.931968800518642    -2.045261661626189    -1.959736236138236
    H                0.063031199481358    -1.792261661626189    -1.146736236138236
    H               -0.697968800518642    -0.294261661626189    -1.719736236138236
    H               -1.236968800518642    -1.034261661626189    -0.197736236138236
    H               -1.557968800518642    -2.263261661626189    -2.959736236138236
    H               -2.137565800518641    -2.984726661626190    -1.425756236138236
    H               -2.839591800518641    -1.432701661626189    -2.064596236138236
    C                0.336031199481358     0.969738338373811     1.002263763861764
    C                1.555031199481358     0.580738338373811     0.115263763861764
    C                0.927031199481358     1.789738338373811     2.115263763861764
    H               -0.174968800518642     0.094738338373811     1.399263763861764
    H               -0.351968800518642     1.586738338373811     0.421263763861764
    H                1.918031199481358    -0.408261661626189     0.397263763861764
    H                1.277031199481358     0.603738338373811    -0.937736236138236
    H                1.267031199481358     1.115738338373811     2.903263763861764
    H                0.205031199481358     2.502738338373810     2.517263763861764
    H                2.326243199481358     1.332578338373811     0.338803763861764
    H                1.783956199481358     2.298448338373810     1.649543763861764

}
e, wfn = energy('scf', return_wfn=True)
gdma(wfn)
dmavals = variable('DMA DISTRIBUTED MULTIPOLES')
charges = np.array(dmavals)
print(charges)
np.save('SSI-129LEU-195PRO-1-dimer.npy', np.array(charges))--------------------------------------------------------------------------

*** tstart() called on ds3
*** at Mon Apr 27 16:38:07 2020

   => Loading Basis Set <=

    Name: CC-PVDZ
    Role: ORBITAL
    Keyword: BASIS
    atoms 1-2, 9-11  entry C          line   138 file /theoryfs2/ds/metcalf/miniconda2/envs/tf2gpu/share/psi4/basis/cc-pvdz.gbs 
    atoms 3-8, 12-19 entry H          line    22 file /theoryfs2/ds/metcalf/miniconda2/envs/tf2gpu/share/psi4/basis/cc-pvdz.gbs 


         ---------------------------------------------------------
                                   SCF
               by Justin Turney, Rob Parrish, Andy Simmonett
                          and Daniel G. A. Smith
                              RHF Reference
                        1 Threads,    500 MiB Core
         ---------------------------------------------------------

  ==> Geometry <==

    Molecular point group: c1
    Full point group: C1

    Geometry (in Angstrom), charge = 0, multiplicity = 1:

       Center              X                  Y                   Z               Mass       
    ------------   -----------------  -----------------  -----------------  -----------------
         C           -0.872968800519    -1.238261661626    -1.203736236138    12.000000000000
         C           -1.931968800519    -2.045261661626    -1.959736236138    12.000000000000
         H            0.063031199481    -1.792261661626    -1.146736236138     1.007825032230
         H           -0.697968800519    -0.294261661626    -1.719736236138     1.007825032230
         H           -1.236968800519    -1.034261661626    -0.197736236138     1.007825032230
         H           -1.557968800519    -2.263261661626    -2.959736236138     1.007825032230
         H           -2.137565800519    -2.984726661626    -1.425756236138     1.007825032230
         H           -2.839591800519    -1.432701661626    -2.064596236138     1.007825032230
         C            0.336031199481     0.969738338374     1.002263763862    12.000000000000
         C            1.555031199481     0.580738338374     0.115263763862    12.000000000000
         C            0.927031199481     1.789738338374     2.115263763862    12.000000000000
         H           -0.174968800519     0.094738338374     1.399263763862     1.007825032230
         H           -0.351968800519     1.586738338374     0.421263763862     1.007825032230
         H            1.918031199481    -0.408261661626     0.397263763862     1.007825032230
         H            1.277031199481     0.603738338374    -0.937736236138     1.007825032230
         H            1.267031199481     1.115738338374     2.903263763862     1.007825032230
         H            0.205031199481     2.502738338374     2.517263763862     1.007825032230
         H            2.326243199481     1.332578338374     0.338803763862     1.007825032230
         H            1.783956199481     2.298448338374     1.649543763862     1.007825032230

  Running in c1 symmetry.

  Rotational constants: A =      0.36575  B =      0.04009  C =      0.03747 [cm^-1]
  Rotational constants: A =  10964.79461  B =   1201.89443  C =   1123.30514 [MHz]
  Nuclear repulsion =  182.608741543657459

  Charge       = 0
  Multiplicity = 1
  Electrons    = 44
  Nalpha       = 22
  Nbeta        = 22

  ==> Algorithm <==

  SCF Algorithm Type is PK.
  DIIS enabled.
  MOM disabled.
  Fractional occupation disabled.
  Guess Type is SAD.
  Energy threshold   = 1.00e-06
  Density threshold  = 1.00e-10
  Integral threshold = 0.00e+00

  ==> Primary Basis <==

  Basis Set: CC-PVDZ
    Blend: CC-PVDZ
    Number of shells: 72
    Number of basis function: 140
    Number of Cartesian functions: 145
    Spherical Harmonics?: true
    Max angular momentum: 2

  ==> Pre-Iterations <==

   -------------------------------------------------------
    Irrep   Nso     Nmo     Nalpha   Nbeta   Ndocc  Nsocc
   -------------------------------------------------------
     A        140     140       0       0       0       0
   -------------------------------------------------------
    Total     140     140      22      22      22       0
   -------------------------------------------------------

  ==> Integral Setup <==

  Using integral reordering PK algorithm.
  Sizing the integral batches needed.
  Building batch lookup table.
   Calculation information:
      Number of atoms:                  19
      Number of AO shells:              72
      Number of primitives:            180
      Number of atomic orbitals:       145
      Number of basis functions:       140

      Integral cutoff                 1.00e-12
      Number of threads:                 1

	Batch   1 pq = [       0,    9405] index = [             0,44231715] size =     44231715
	Batch   2 pq = [    9405,    9870] index = [      44231715,48713385] size =      4481670
  Task number: 5
  Buffer size: 11059200
  Buffer per thread: 2
  We computed 2951213 shell quartets total.
  Whereas there are 3454506 unique shell quartets.

  ==> DiskJK: Disk-Based J/K Matrices <==

    J tasked:                  Yes
    K tasked:                  Yes
    wK tasked:                  No
    Memory [MiB]:              375
    Schwarz Cutoff:          1E-12

    OpenMP threads:              1

  Minimum eigenvalue in the overlap matrix is 4.3599430484E-03.
  Using Symmetric Orthogonalization.

  SCF Guess: Superposition of Atomic Densities via on-the-fly atomic UHF.

  ==> Iterations <==

                        Total Energy        Delta E     RMS |[F,P]|

   @RHF iter SAD:  -196.50324441005066   -1.96503e+02   0.00000e+00 
   @RHF iter   1:  -197.28859368738000   -7.85349e-01   3.83411e-03 DIIS
   @RHF iter   2:  -197.45086643191175   -1.62273e-01   1.64486e-03 DIIS
   @RHF iter   3:  -197.47943414081652   -2.85677e-02   3.29088e-04 DIIS
   @RHF iter   4:  -197.48164857411592   -2.21443e-03   5.00116e-05 DIIS
   @RHF iter   5:  -197.48168892501383   -4.03509e-05   1.53299e-05 DIIS
   @RHF iter   6:  -197.48169251911963   -3.59411e-06   2.59763e-06 DIIS
   @RHF iter   7:  -197.48169264117533   -1.22056e-07   4.69068e-07 DIIS
   @RHF iter   8:  -197.48169264588611   -4.71078e-09   1.02930e-07 DIIS
   @RHF iter   9:  -197.48169264611599   -2.29875e-10   3.39947e-08 DIIS
   @RHF iter  10:  -197.48169264614069   -2.46985e-11   7.89324e-09 DIIS
   @RHF iter  11:  -197.48169264614285   -2.16005e-12   1.52776e-09 DIIS
   @RHF iter  12:  -197.48169264614287   -2.84217e-14   3.26579e-10 DIIS
   @RHF iter  13:  -197.48169264614350   -6.25278e-13   8.39394e-11 DIIS
  Energy and wave function converged.


  ==> Post-Iterations <==

    Orbital Energies [Eh]
    ---------------------

    Doubly Occupied:                                                      

       1A    -11.218132     2A    -11.215036     3A    -11.214610  
       4A    -11.212954     5A    -11.210504     6A     -1.060494  
       7A     -1.017354     8A     -0.913239     9A     -0.835273  
      10A     -0.797376    11A     -0.632742    12A     -0.611388  
      13A     -0.598547    14A     -0.597229    15A     -0.541065  
      16A     -0.516168    17A     -0.494755    18A     -0.490977  
      19A     -0.486826    20A     -0.472708    21A     -0.466616  
      22A     -0.453211  

    Virtual:                                                              

      23A      0.175866    24A      0.196416    25A      0.216709  
      26A      0.225718    27A      0.228589    28A      0.254928  
      29A      0.259510    30A      0.273626    31A      0.276569  
      32A      0.291189    33A      0.296886    34A      0.317540  
      35A      0.333997    36A      0.352103    37A      0.374318  
      38A      0.404465    39A      0.440397    40A      0.557999  
      41A      0.569498    42A      0.600330    43A      0.601511  
      44A      0.619058    45A      0.637317    46A      0.658798  
      47A      0.696569    48A      0.734129    49A      0.757635  
      50A      0.797947    51A      0.810560    52A      0.844617  
      53A      0.858886    54A      0.885805    55A      0.890472  
      56A      0.893825    57A      0.897420    58A      0.897818  
      59A      0.908364    60A      0.912356    61A      0.922295  
      62A      0.932073    63A      0.937722    64A      0.951030  
      65A      0.958780    66A      0.970956    67A      0.980187  
      68A      1.071282    69A      1.079577    70A      1.108598  
      71A      1.136312    72A      1.150724    73A      1.178955  
      74A      1.334458    75A      1.414858    76A      1.470099  
      77A      1.477964    78A      1.484929    79A      1.509732  
      80A      1.585852    81A      1.615800    82A      1.622460  
      83A      1.637853    84A      1.676373    85A      1.692501  
      86A      1.721334    87A      1.733275    88A      1.799572  
      89A      1.843061    90A      1.867083    91A      1.884577  
      92A      1.888595    93A      1.915650    94A      1.920698  
      95A      1.924330    96A      1.944290    97A      1.946972  
      98A      1.952688    99A      1.961689   100A      1.968439  
     101A      1.992683   102A      2.003968   103A      2.025827  
     104A      2.032485   105A      2.069132   106A      2.076566  
     107A      2.098652   108A      2.110831   109A      2.136709  
     110A      2.158716   111A      2.233156   112A      2.245409  
     113A      2.304077   114A      2.314062   115A      2.346969  
     116A      2.390721   117A      2.430557   118A      2.444122  
     119A      2.468736   120A      2.483987   121A      2.503705  
     122A      2.565404   123A      2.567312   124A      2.585644  
     125A      2.644237   126A      2.703725   127A      2.768529  
     128A      2.773065   129A      2.791339   130A      2.800792  
     131A      2.806553   132A      2.836845   133A      2.844215  
     134A      2.850969   135A      2.860749   136A      2.916997  
     137A      2.929261   138A      2.954464   139A      2.971218  
     140A      3.058780  

    Final Occupation by Irrep:
              A 
    DOCC [    22 ]

  @RHF Final Energy:  -197.48169264614350

   => Energetics <=

    Nuclear Repulsion Energy =            182.6087415436574588
    One-Electron Energy =                -626.0664620748534617
    Two-Electron Energy =                 245.9760278850525026
    Total Energy =                       -197.4816926461435003

Computation Completed


Properties will be evaluated at   0.000000,   0.000000,   0.000000 [a0]

Properties computed using the SCF density matrix

  Nuclear Dipole Moment: [e a0]
     X:    -0.1469      Y:    -0.6328      Z:    -0.7738

  Electronic Dipole Moment: [e a0]
     X:     0.1180      Y:     0.6183      Z:     0.7667

  Dipole Moment: [e a0]
     X:    -0.0288      Y:    -0.0145      Z:    -0.0071     Total:     0.0330

  Dipole Moment: [D]
     X:    -0.0732      Y:    -0.0369      Z:    -0.0180     Total:     0.0840


*** tstop() called on ds3 at Mon Apr 27 16:38:33 2020
Module time:
	user time   =      17.79 seconds =       0.30 minutes
	system time =       8.61 seconds =       0.14 minutes
	total time  =         26 seconds =       0.43 minutes
Total time:
	user time   =      17.79 seconds =       0.30 minutes
	system time =       8.61 seconds =       0.14 minutes
	total time  =         26 seconds =       0.43 minutes
                                     G D M A

                                 by Anthony Stone

                           version 2.2.06, 22 June 2011

               Distributed Multipoles from Gaussian wavefunctions


Starting at 16:38:33 on 27 Apr 2020 


Using SCF density matrix from file ./SSI/SSI-129LEU-195PRO-1-dimer.test.27500.fchk


                         Distributed Multipole Analysis

Standard DMA

Positions and radii in angstrom
Multipole moments in atomic units, ea_0^k for rank k

C          x = -0.872969  y = -1.238262  z = -1.203736 angstrom
           Maximum rank =  0   Radius =  0.650 angstrom
                   Q00  =  -0.244799

C          x = -1.931969  y = -2.045262  z = -1.959736 angstrom
           Maximum rank =  0   Radius =  0.650 angstrom
                   Q00  =  -0.227197

H          x =  0.063031  y = -1.792262  z = -1.146736 angstrom
           Maximum rank =  0   Radius =  0.325 angstrom
                   Q00  =   0.080240

H          x = -0.697969  y = -0.294262  z = -1.719736 angstrom
           Maximum rank =  0   Radius =  0.325 angstrom
                   Q00  =   0.075473

H          x = -1.236969  y = -1.034262  z = -0.197736 angstrom
           Maximum rank =  0   Radius =  0.325 angstrom
                   Q00  =   0.079762

H          x = -1.557969  y = -2.263262  z = -2.959736 angstrom
           Maximum rank =  0   Radius =  0.325 angstrom
                   Q00  =   0.078358

H          x = -2.137566  y = -2.984727  z = -1.425756 angstrom
           Maximum rank =  0   Radius =  0.325 angstrom
                   Q00  =   0.080326

H          x = -2.839592  y = -1.432702  z = -2.064596 angstrom
           Maximum rank =  0   Radius =  0.325 angstrom
                   Q00  =   0.078357

C          x =  0.336031  y =  0.969738  z =  1.002264 angstrom
           Maximum rank =  0   Radius =  0.650 angstrom
                   Q00  =  -0.117473

C          x =  1.555031  y =  0.580738  z =  0.115264 angstrom
           Maximum rank =  0   Radius =  0.650 angstrom
                   Q00  =  -0.242282

C          x =  0.927031  y =  1.789738  z =  2.115264 angstrom
           Maximum rank =  0   Radius =  0.650 angstrom
                   Q00  =  -0.195717

H          x = -0.174969  y =  0.094738  z =  1.399264 angstrom
           Maximum rank =  0   Radius =  0.325 angstrom
                   Q00  =   0.053365

H          x = -0.351969  y =  1.586738  z =  0.421264 angstrom
           Maximum rank =  0   Radius =  0.325 angstrom
                   Q00  =   0.053374

H          x =  1.918031  y = -0.408262  z =  0.397264 angstrom
           Maximum rank =  0   Radius =  0.325 angstrom
                   Q00  =   0.081368

H          x =  1.277031  y =  0.603738  z = -0.937736 angstrom
           Maximum rank =  0   Radius =  0.325 angstrom
                   Q00  =   0.090563

H          x =  1.267031  y =  1.115738  z =  2.903264 angstrom
           Maximum rank =  0   Radius =  0.325 angstrom
                   Q00  =   0.080471

H          x =  0.205031  y =  2.502738  z =  2.517264 angstrom
           Maximum rank =  0   Radius =  0.325 angstrom
                   Q00  =   0.079113

H          x =  2.326243  y =  1.332578  z =  0.338804 angstrom
           Maximum rank =  0   Radius =  0.325 angstrom
                   Q00  =   0.065286

H          x =  1.783956  y =  2.298448  z =  1.649544 angstrom
           Maximum rank =  0   Radius =  0.325 angstrom
                   Q00  =   0.051412

Total multipoles referred to origin at
           x =   0.000000,  y =    0.000000,  z =    0.000000 angstrom
                   Q00  =  -0.000000

Finished at 16:38:33 on 27 Apr 2020 

  DMA results are available in the Python driver through the
	  variable('DMA DISTRIBUTED MULTIPOLES')
  and
	  variable('DMA TOTAL MULTIPOLES')
  commands.


    Psi4 stopped on: Monday, 27 April 2020 04:38PM
    Psi4 wall time for execution: 0:00:25.90

*** Psi4 exiting successfully. Buy a developer a beer!
