
    -----------------------------------------------------------------------
          Psi4: An Open-Source Ab Initio Electronic Structure Package
                               Psi4 1.3.2 release

                         Git: Rev {HEAD} ecbda83 


    R. M. Parrish, L. A. Burns, D. G. A. Smith, A. C. Simmonett,
    A. E. DePrince III, E. G. Hohenstein, U. Bozkaya, A. Yu. Sokolov,
    R. Di Remigio, R. M. Richard, J. F. Gonthier, A. M. James,
    H. R. McAlexander, A. Kumar, M. Saitow, X. Wang, B. P. Pritchard,
    P. Verma, H. F. Schaefer III, K. Patkowski, R. A. King, E. F. Valeev,
    F. A. Evangelista, J. M. Turney, T. D. Crawford, and C. D. Sherrill,
    J. Chem. Theory Comput. 13(7) pp 3185--3197 (2017).
    (doi: 10.1021/acs.jctc.7b00174)


                         Additional Contributions by
    P. Kraus, H. Kruse, M. H. Lechner, M. C. Schieber, R. A. Shaw,
    A. Alenaizan, R. Galvelis, Z. L. Glick, S. Lehtola, and J. P. Misiewicz

    -----------------------------------------------------------------------


    Psi4 started on: Tuesday, 28 April 2020 03:54AM

    Process ID: 26959
    Host:       ds3
    PSIDATADIR: /theoryfs2/ds/metcalf/miniconda2/envs/tf2gpu/share/psi4
    Memory:     500.0 MiB
    Threads:    1
    
  ==> Input File <==

--------------------------------------------------------------------------
import numpy as np
set {scf_type pk
basis cc-pvdz
d_convergence 10
gdma_switch   0
gdma_limit    0
gdma_origin   [ 0.0,  0.0,  0.0 ]
}
molecule test {
    units Angstrom
    0 1
    --
    0 1
    C               -1.131748062295566    -0.159867298142235    -1.661777348856019
    C               -2.400748062295565    -0.914867298142235    -2.050777348856019
    C               -1.431748062295566     1.242132701857765    -1.180777348856019
    C               -1.542748062295566     2.292132701857765    -2.085777348856019
    C               -1.674748062295565     1.499132701857765     0.167222651143981
    C               -1.867748062295566     3.577132701857765    -1.655777348856019
    C               -2.003748062295565     2.785132701857765     0.598222651143981
    C               -2.098748062295565     3.822132701857765    -0.314777348856019
    O               -2.418748062295566     5.084132701857765     0.082222651143981
    H               -0.624748062295566    -0.697867298142235    -0.866777348856019
    H               -0.474748062295566    -0.095867298142235    -2.526777348856019
    H               -2.941748062295566    -0.277867298142235    -2.753777348856019
    H               -1.372748062295566     2.112132701857765    -3.139777348856019
    H               -1.627748062295566     0.691132701857765     0.884222651143981
    H               -1.940748062295566     4.383132701857765    -2.372777348856019
    H               -2.285748062295565     3.002132701857765     1.607222651143981
    H               -2.278748062295565     5.721132701857765    -0.626777348856019
    H               -3.022343062295566    -1.108218898142235    -1.164078348856019
    H               -2.197588062295565    -1.872829878142235    -2.551810348856019
    C                3.503251937704435    -5.029867298142236     1.597222651143981
    C                1.561251937704434    -2.236867298142235    -0.009777348856019
    C                2.145251937704435    -3.469867298142235     0.203222651143981
    C                1.696251937704434    -1.201867298142235     0.892222651143981
    C                2.897251937704435    -3.687867298142235     1.335222651143981
    C                2.399251937704435    -1.419867298142235     2.056222651143981
    C                2.980251937704435    -2.664867298142235     2.270222651143981
    H                0.951251937704435    -2.115867298142235    -0.885777348856019
    H                1.985251937704434    -4.260867298142236    -0.512777348856019
    H                1.215251937704434    -0.251867298142235     0.707222651143981
    H                2.493251937704434    -0.638867298142235     2.797222651143981
    H                2.756251937704435    -5.768867298142235     1.409222651143981
    H                3.812251937704434    -5.097867298142235     2.641222651143981
    H                3.499251937704434    -2.840867298142235     3.196222651143981
    H                4.354471937704435    -5.273482298142234     0.944477651143981

}
e, wfn = energy('scf', return_wfn=True)
gdma(wfn)
dmavals = variable('DMA DISTRIBUTED MULTIPOLES')
charges = np.array(dmavals)
print(charges)
np.save('SSI-049TYR-054PHE-1-dimer.npy', np.array(charges))--------------------------------------------------------------------------

*** tstart() called on ds3
*** at Tue Apr 28 03:54:23 2020

   => Loading Basis Set <=

    Name: CC-PVDZ
    Role: ORBITAL
    Keyword: BASIS
    atoms 1-8, 20-26   entry C          line   138 file /theoryfs2/ds/metcalf/miniconda2/envs/tf2gpu/share/psi4/basis/cc-pvdz.gbs 
    atoms 9            entry O          line   198 file /theoryfs2/ds/metcalf/miniconda2/envs/tf2gpu/share/psi4/basis/cc-pvdz.gbs 
    atoms 10-19, 27-34 entry H          line    22 file /theoryfs2/ds/metcalf/miniconda2/envs/tf2gpu/share/psi4/basis/cc-pvdz.gbs 


         ---------------------------------------------------------
                                   SCF
               by Justin Turney, Rob Parrish, Andy Simmonett
                          and Daniel G. A. Smith
                              RHF Reference
                        1 Threads,    500 MiB Core
         ---------------------------------------------------------

  ==> Geometry <==

    Molecular point group: c1
    Full point group: C1

    Geometry (in Angstrom), charge = 0, multiplicity = 1:

       Center              X                  Y                   Z               Mass       
    ------------   -----------------  -----------------  -----------------  -----------------
         C           -1.131748062296    -0.159867298142    -1.661777348856    12.000000000000
         C           -2.400748062296    -0.914867298142    -2.050777348856    12.000000000000
         C           -1.431748062296     1.242132701858    -1.180777348856    12.000000000000
         C           -1.542748062296     2.292132701858    -2.085777348856    12.000000000000
         C           -1.674748062296     1.499132701858     0.167222651144    12.000000000000
         C           -1.867748062296     3.577132701858    -1.655777348856    12.000000000000
         C           -2.003748062296     2.785132701858     0.598222651144    12.000000000000
         C           -2.098748062296     3.822132701858    -0.314777348856    12.000000000000
         O           -2.418748062296     5.084132701858     0.082222651144    15.994914619570
         H           -0.624748062296    -0.697867298142    -0.866777348856     1.007825032230
         H           -0.474748062296    -0.095867298142    -2.526777348856     1.007825032230
         H           -2.941748062296    -0.277867298142    -2.753777348856     1.007825032230
         H           -1.372748062296     2.112132701858    -3.139777348856     1.007825032230
         H           -1.627748062296     0.691132701858     0.884222651144     1.007825032230
         H           -1.940748062296     4.383132701858    -2.372777348856     1.007825032230
         H           -2.285748062296     3.002132701858     1.607222651144     1.007825032230
         H           -2.278748062296     5.721132701858    -0.626777348856     1.007825032230
         H           -3.022343062296    -1.108218898142    -1.164078348856     1.007825032230
         H           -2.197588062296    -1.872829878142    -2.551810348856     1.007825032230
         C            3.503251937704    -5.029867298142     1.597222651144    12.000000000000
         C            1.561251937704    -2.236867298142    -0.009777348856    12.000000000000
         C            2.145251937704    -3.469867298142     0.203222651144    12.000000000000
         C            1.696251937704    -1.201867298142     0.892222651144    12.000000000000
         C            2.897251937704    -3.687867298142     1.335222651144    12.000000000000
         C            2.399251937704    -1.419867298142     2.056222651144    12.000000000000
         C            2.980251937704    -2.664867298142     2.270222651144    12.000000000000
         H            0.951251937704    -2.115867298142    -0.885777348856     1.007825032230
         H            1.985251937704    -4.260867298142    -0.512777348856     1.007825032230
         H            1.215251937704    -0.251867298142     0.707222651144     1.007825032230
         H            2.493251937704    -0.638867298142     2.797222651144     1.007825032230
         H            2.756251937704    -5.768867298142     1.409222651144     1.007825032230
         H            3.812251937704    -5.097867298142     2.641222651144     1.007825032230
         H            3.499251937704    -2.840867298142     3.196222651144     1.007825032230
         H            4.354471937704    -5.273482298142     0.944477651144     1.007825032230

  Running in c1 symmetry.

  Rotational constants: A =      0.03677  B =      0.00553  C =      0.00500 [cm^-1]
  Rotational constants: A =   1102.36376  B =    165.83937  C =    149.75595 [MHz]
  Nuclear repulsion =  950.647752354801810

  Charge       = 0
  Multiplicity = 1
  Electrons    = 116
  Nalpha       = 58
  Nbeta        = 58

  ==> Algorithm <==

  SCF Algorithm Type is PK.
  DIIS enabled.
  MOM disabled.
  Fractional occupation disabled.
  Guess Type is SAD.
  Energy threshold   = 1.00e-06
  Density threshold  = 1.00e-10
  Integral threshold = 0.00e+00

  ==> Primary Basis <==

  Basis Set: CC-PVDZ
    Blend: CC-PVDZ
    Number of shells: 150
    Number of basis function: 314
    Number of Cartesian functions: 330
    Spherical Harmonics?: true
    Max angular momentum: 2

  ==> Pre-Iterations <==

   -------------------------------------------------------
    Irrep   Nso     Nmo     Nalpha   Nbeta   Ndocc  Nsocc
   -------------------------------------------------------
     A        314     314       0       0       0       0
   -------------------------------------------------------
    Total     314     314      58      58      58       0
   -------------------------------------------------------

  ==> Integral Setup <==

  Using integral reordering PK algorithm.
  Sizing the integral batches needed.
  Building batch lookup table.
   Calculation information:
      Number of atoms:                  34
      Number of AO shells:             150
      Number of primitives:            442
      Number of atomic orbitals:       330
      Number of basis functions:       314

      Integral cutoff                 1.00e-12
      Number of threads:                 1

	Batch   1 pq = [       0,    9405] index = [             0,44231715] size =     44231715
	Batch   2 pq = [    9405,   13301] index = [      44231715,88464951] size =     44233236
	Batch   3 pq = [   13301,   16290] index = [      88464951,132690195] size =     44225244
	Batch   4 pq = [   16290,   18810] index = [     132690195,176917455] size =     44227260
	Batch   5 pq = [   18810,   21030] index = [     176917455,221140965] size =     44223510
	Batch   6 pq = [   21030,   23037] index = [     221140965,265363203] size =     44222238
	Batch   7 pq = [   23037,   24883] index = [     265363203,309594286] size =     44231083
	Batch   8 pq = [   24883,   26601] index = [     309594286,353819901] size =     44225615
	Batch   9 pq = [   26601,   28214] index = [     353819901,398029005] size =     44209104
	Batch  10 pq = [   28214,   29740] index = [     398029005,442248670] size =     44219665
	Batch  11 pq = [   29740,   31191] index = [     442248670,486454836] size =     44206166
	Batch  12 pq = [   31191,   32578] index = [     486454836,530679331] size =     44224495
	Batch  13 pq = [   32578,   33908] index = [     530679331,574893186] size =     44213855
	Batch  14 pq = [   33908,   35188] index = [     574893186,619115266] size =     44222080
	Batch  15 pq = [   35188,   36423] index = [     619115266,663335676] size =     44220410
	Batch  16 pq = [   36423,   37617] index = [     663335676,707538153] size =     44202477
	Batch  17 pq = [   37617,   38775] index = [     707538153,751769700] size =     44231547
	Batch  18 pq = [   38775,   39899] index = [     751769700,795985050] size =     44215350
	Batch  19 pq = [   39899,   40992] index = [     795985050,840192528] size =     44207478
	Batch  20 pq = [   40992,   42057] index = [     840192528,884416653] size =     44224125
	Batch  21 pq = [   42057,   43095] index = [     884416653,928611060] size =     44194407
	Batch  22 pq = [   43095,   44109] index = [     928611060,972823995] size =     44212935
	Batch  23 pq = [   44109,   45100] index = [     972823995,1017027550] size =     44203555
	Batch  24 pq = [   45100,   46070] index = [    1017027550,1061245485] size =     44217935
	Batch  25 pq = [   46070,   47020] index = [    1061245485,1105463710] size =     44218225
	Batch  26 pq = [   47020,   47951] index = [    1105463710,1149673176] size =     44209466
	Batch  27 pq = [   47951,   48864] index = [    1149673176,1193869680] size =     44196504
	Batch  28 pq = [   48864,   49455] index = [    1193869680,1222923240] size =     29053560
  Task number: 111
  Buffer size: 11059200
  Buffer per thread: 2
  We computed 52516527 shell quartets total.
  Whereas there are 64133475 unique shell quartets.

  ==> DiskJK: Disk-Based J/K Matrices <==

    J tasked:                  Yes
    K tasked:                  Yes
    wK tasked:                  No
    Memory [MiB]:              375
    Schwarz Cutoff:          1E-12

    OpenMP threads:              1

  Minimum eigenvalue in the overlap matrix is 2.8488610402E-04.
  Using Symmetric Orthogonalization.

  SCF Guess: Superposition of Atomic Densities via on-the-fly atomic UHF.

  ==> Iterations <==

                        Total Energy        Delta E     RMS |[F,P]|

   @RHF iter SAD:  -652.42776022224382   -6.52428e+02   0.00000e+00 
   @RHF iter   1:  -653.06278306459535   -6.35023e-01   2.29976e-03 DIIS
   @RHF iter   2:  -653.36494039893614   -3.02157e-01   9.60746e-04 DIIS
   @RHF iter   3:  -653.41161386549300   -4.66735e-02   2.26009e-04 DIIS
   @RHF iter   4:  -653.41559244236259   -3.97858e-03   8.50785e-05 DIIS
   @RHF iter   5:  -653.41600716273615   -4.14720e-04   1.71325e-05 DIIS
   @RHF iter   6:  -653.41603077175125   -2.36090e-05   5.16254e-06 DIIS
   @RHF iter   7:  -653.41603297363542   -2.20188e-06   1.47900e-06 DIIS
   @RHF iter   8:  -653.41603321399589   -2.40360e-07   5.66260e-07 DIIS
   @RHF iter   9:  -653.41603324527216   -3.12763e-08   1.83720e-07 DIIS
   @RHF iter  10:  -653.41603324901678   -3.74462e-09   5.76268e-08 DIIS
   @RHF iter  11:  -653.41603324956395   -5.47175e-10   2.32767e-08 DIIS
   @RHF iter  12:  -653.41603324968082   -1.16870e-10   1.19893e-08 DIIS
   @RHF iter  13:  -653.41603324972073   -3.99041e-11   5.18069e-09 DIIS
   @RHF iter  14:  -653.41603324972641   -5.68434e-12   1.82919e-09 DIIS
   @RHF iter  15:  -653.41603324972675   -3.41061e-13   5.24826e-10 DIIS
   @RHF iter  16:  -653.41603324972561    1.13687e-12   2.26268e-10 DIIS
   @RHF iter  17:  -653.41603324973073   -5.11591e-12   6.85433e-11 DIIS
  Energy and wave function converged.


  ==> Post-Iterations <==

    Orbital Energies [Eh]
    ---------------------

    Doubly Occupied:                                                      

       1A    -20.582811     2A    -11.296731     3A    -11.239777  
       4A    -11.239088     5A    -11.236386     6A    -11.232422  
       7A    -11.232179     8A    -11.231427     9A    -11.229322  
      10A    -11.229303    11A    -11.228119    12A    -11.227059  
      13A    -11.226810    14A    -11.226022    15A    -11.225365  
      16A    -11.222208    17A     -1.400913    18A     -1.158903  
      19A     -1.154399    20A     -1.060849    21A     -1.049566  
      22A     -1.018043    23A     -1.012856    24A     -0.978007  
      25A     -0.935145    26A     -0.861063    27A     -0.846137  
      28A     -0.826442    29A     -0.797882    30A     -0.792588  
      31A     -0.733007    32A     -0.694536    33A     -0.672528  
      34A     -0.648765    35A     -0.635386    36A     -0.628594  
      37A     -0.615100    38A     -0.598444    39A     -0.590736  
      40A     -0.583239    41A     -0.580941    42A     -0.575866  
      43A     -0.569099    44A     -0.565466    45A     -0.549482  
      46A     -0.539295    47A     -0.515811    48A     -0.497549  
      49A     -0.490655    50A     -0.486136    51A     -0.481715  
      52A     -0.478144    53A     -0.473483    54A     -0.465271  
      55A     -0.338478    56A     -0.332158    57A     -0.324010  
      58A     -0.304231  

    Virtual:                                                              

      59A      0.127343    60A      0.136396    61A      0.145037  
      62A      0.154074    63A      0.178579    64A      0.180281  
      65A      0.191404    66A      0.205350    67A      0.209347  
      68A      0.218487    69A      0.226126    70A      0.239109  
      71A      0.246206    72A      0.253392    73A      0.258586  
      74A      0.273722    75A      0.284376    76A      0.290357  
      77A      0.296055    78A      0.299026    79A      0.305321  
      80A      0.325062    81A      0.353832    82A      0.371815  
      83A      0.376784    84A      0.400475    85A      0.424031  
      86A      0.429581    87A      0.448377    88A      0.467856  
      89A      0.477864    90A      0.488619    91A      0.489177  
      92A      0.503685    93A      0.505389    94A      0.540379  
      95A      0.573271    96A      0.593026    97A      0.598941  
      98A      0.619924    99A      0.623864   100A      0.645598  
     101A      0.647201   102A      0.664736   103A      0.681915  
     104A      0.684542   105A      0.694276   106A      0.700407  
     107A      0.705863   108A      0.714538   109A      0.723659  
     110A      0.725852   111A      0.734285   112A      0.736776  
     113A      0.740837   114A      0.745779   115A      0.750229  
     116A      0.754805   117A      0.759557   118A      0.765635  
     119A      0.774033   120A      0.784910   121A      0.795777  
     122A      0.805322   123A      0.810220   124A      0.815033  
     125A      0.836101   126A      0.845985   127A      0.853756  
     128A      0.865398   129A      0.870409   130A      0.876937  
     131A      0.880513   132A      0.883737   133A      0.885620  
     134A      0.891816   135A      0.894823   136A      0.901312  
     137A      0.904985   138A      0.920002   139A      0.928974  
     140A      0.932234   141A      0.937004   142A      0.940279  
     143A      0.948906   144A      0.950880   145A      0.967475  
     146A      0.968161   147A      0.974993   148A      0.997804  
     149A      1.010739   150A      1.023197   151A      1.032778  
     152A      1.044808   153A      1.090672   154A      1.113246  
     155A      1.126752   156A      1.136284   157A      1.138639  
     158A      1.149717   159A      1.155138   160A      1.167807  
     161A      1.172057   162A      1.185607   163A      1.195904  
     164A      1.215356   165A      1.222949   166A      1.237338  
     167A      1.239685   168A      1.247931   169A      1.263653  
     170A      1.268879   171A      1.283677   172A      1.291724  
     173A      1.298614   174A      1.308221   175A      1.309581  
     176A      1.314936   177A      1.322484   178A      1.329893  
     179A      1.338996   180A      1.353575   181A      1.365621  
     182A      1.387750   183A      1.409423   184A      1.427634  
     185A      1.438781   186A      1.487476   187A      1.509492  
     188A      1.527229   189A      1.533166   190A      1.547790  
     191A      1.558469   192A      1.612771   193A      1.619622  
     194A      1.624609   195A      1.639392   196A      1.673932  
     197A      1.686828   198A      1.694317   199A      1.702048  
     200A      1.728680   201A      1.740581   202A      1.742524  
     203A      1.754514   204A      1.766022   205A      1.774656  
     206A      1.797229   207A      1.808414   208A      1.820171  
     209A      1.848138   210A      1.861565   211A      1.867634  
     212A      1.873512   213A      1.883053   214A      1.890895  
     215A      1.891812   216A      1.899292   217A      1.904405  
     218A      1.910803   219A      1.911294   220A      1.920006  
     221A      1.925495   222A      1.930063   223A      1.937521  
     224A      1.946705   225A      1.956177   226A      1.964351  
     227A      1.967304   228A      1.969547   229A      1.982455  
     230A      1.986120   231A      1.997230   232A      1.998590  
     233A      2.014756   234A      2.022422   235A      2.030614  
     236A      2.032356   237A      2.041871   238A      2.048865  
     239A      2.062226   240A      2.080404   241A      2.090210  
     242A      2.093553   243A      2.106722   244A      2.117775  
     245A      2.134047   246A      2.144703   247A      2.150842  
     248A      2.160674   249A      2.171102   250A      2.194221  
     251A      2.207337   252A      2.219629   253A      2.226232  
     254A      2.237836   255A      2.252877   256A      2.261380  
     257A      2.273392   258A      2.280698   259A      2.294290  
     260A      2.301702   261A      2.311907   262A      2.317524  
     263A      2.349316   264A      2.350582   265A      2.362410  
     266A      2.372295   267A      2.455303   268A      2.456436  
     269A      2.466239   270A      2.479418   271A      2.486010  
     272A      2.488168   273A      2.507985   274A      2.533554  
     275A      2.542752   276A      2.550211   277A      2.553510  
     278A      2.577149   279A      2.636645   280A      2.642298  
     281A      2.651932   282A      2.742143   283A      2.761018  
     284A      2.767907   285A      2.778688   286A      2.782073  
     287A      2.799321   288A      2.806289   289A      2.817318  
     290A      2.839194   291A      2.865460   292A      2.868717  
     293A      2.881837   294A      2.896006   295A      2.923544  
     296A      2.952985   297A      2.998449   298A      3.019300  
     299A      3.027896   300A      3.037240   301A      3.057956  
     302A      3.093844   303A      3.177485   304A      3.186058  
     305A      3.234788   306A      3.261444   307A      3.299612  
     308A      3.328322   309A      3.351120   310A      3.579491  
     311A      3.672947   312A      3.987600   313A      4.004724  
     314A      4.181673  

    Final Occupation by Irrep:
              A 
    DOCC [    58 ]

  @RHF Final Energy:  -653.41603324973073

   => Energetics <=

    Nuclear Repulsion Energy =            950.6477523548018098
    One-Electron Energy =               -2772.1956802283825709
    Two-Electron Energy =                1168.1318946238498029
    Total Energy =                       -653.4160332497308445

Computation Completed


Properties will be evaluated at   0.000000,   0.000000,   0.000000 [a0]

Properties computed using the SCF density matrix

  Nuclear Dipole Moment: [e a0]
     X:     2.1449      Y:   -13.4672      Z:    -3.0127

  Electronic Dipole Moment: [e a0]
     X:    -2.0160      Y:    13.3563      Z:     2.5020

  Dipole Moment: [e a0]
     X:     0.1289      Y:    -0.1109      Z:    -0.5107     Total:     0.5383

  Dipole Moment: [D]
     X:     0.3275      Y:    -0.2819      Z:    -1.2981     Total:     1.3681


*** tstop() called on ds3 at Tue Apr 28 04:12:25 2020
Module time:
	user time   =     473.58 seconds =       7.89 minutes
	system time =     188.27 seconds =       3.14 minutes
	total time  =       1082 seconds =      18.03 minutes
Total time:
	user time   =     473.58 seconds =       7.89 minutes
	system time =     188.27 seconds =       3.14 minutes
	total time  =       1082 seconds =      18.03 minutes
                                     G D M A

                                 by Anthony Stone

                           version 2.2.06, 22 June 2011

               Distributed Multipoles from Gaussian wavefunctions


Starting at 4:12:25 on 28 Apr 2020  


Using SCF density matrix from file ./SSI/SSI-049TYR-054PHE-1-dimer.test.26959.fchk


                         Distributed Multipole Analysis

Standard DMA

Positions and radii in angstrom
Multipole moments in atomic units, ea_0^k for rank k

C          x = -1.131748  y = -0.159867  z = -1.661777 angstrom
           Maximum rank =  0   Radius =  0.650 angstrom
                   Q00  =  -0.024819

C          x = -2.400748  y = -0.914867  z = -2.050777 angstrom
           Maximum rank =  0   Radius =  0.650 angstrom
                   Q00  =  -0.237156

C          x = -1.431748  y =  1.242133  z = -1.180777 angstrom
           Maximum rank =  0   Radius =  0.650 angstrom
                   Q00  =  -0.143644

C          x = -1.542748  y =  2.292133  z = -2.085777 angstrom
           Maximum rank =  0   Radius =  0.650 angstrom
                   Q00  =   0.051995

C          x = -1.674748  y =  1.499133  z =  0.167223 angstrom
           Maximum rank =  0   Radius =  0.650 angstrom
                   Q00  =  -0.060405

C          x = -1.867748  y =  3.577133  z = -1.655777 angstrom
           Maximum rank =  0   Radius =  0.650 angstrom
                   Q00  =  -0.177843

C          x = -2.003748  y =  2.785133  z =  0.598223 angstrom
           Maximum rank =  0   Radius =  0.650 angstrom
                   Q00  =  -0.105749

C          x = -2.098748  y =  3.822133  z = -0.314777 angstrom
           Maximum rank =  0   Radius =  0.650 angstrom
                   Q00  =   0.282967

O          x = -2.418748  y =  5.084133  z =  0.082223 angstrom
           Maximum rank =  0   Radius =  0.650 angstrom
                   Q00  =  -0.646455

H          x = -0.624748  y = -0.697867  z = -0.866777 angstrom
           Maximum rank =  0   Radius =  0.325 angstrom
                   Q00  =   0.060208

H          x = -0.474748  y = -0.095867  z = -2.526777 angstrom
           Maximum rank =  0   Radius =  0.325 angstrom
                   Q00  =   0.064325

H          x = -2.941748  y = -0.277867  z = -2.753777 angstrom
           Maximum rank =  0   Radius =  0.325 angstrom
                   Q00  =   0.079299

H          x = -1.372748  y =  2.112133  z = -3.139777 angstrom
           Maximum rank =  0   Radius =  0.325 angstrom
                   Q00  =   0.066762

H          x = -1.627748  y =  0.691133  z =  0.884223 angstrom
           Maximum rank =  0   Radius =  0.325 angstrom
                   Q00  =   0.064724

H          x = -1.940748  y =  4.383133  z = -2.372777 angstrom
           Maximum rank =  0   Radius =  0.325 angstrom
                   Q00  =   0.069128

H          x = -2.285748  y =  3.002133  z =  1.607223 angstrom
           Maximum rank =  0   Radius =  0.325 angstrom
                   Q00  =   0.082043

H          x = -2.278748  y =  5.721133  z = -0.626777 angstrom
           Maximum rank =  0   Radius =  0.325 angstrom
                   Q00  =   0.407163

H          x = -3.022343  y = -1.108219  z = -1.164078 angstrom
           Maximum rank =  0   Radius =  0.325 angstrom
                   Q00  =   0.083682

H          x = -2.197588  y = -1.872830  z = -2.551810 angstrom
           Maximum rank =  0   Radius =  0.325 angstrom
                   Q00  =   0.080589

C          x =  3.503252  y = -5.029867  z =  1.597223 angstrom
           Maximum rank =  0   Radius =  0.650 angstrom
                   Q00  =  -0.206198

C          x =  1.561252  y = -2.236867  z = -0.009777 angstrom
           Maximum rank =  0   Radius =  0.650 angstrom
                   Q00  =   0.029870

C          x =  2.145252  y = -3.469867  z =  0.203223 angstrom
           Maximum rank =  0   Radius =  0.650 angstrom
                   Q00  =  -0.090778

C          x =  1.696252  y = -1.201867  z =  0.892223 angstrom
           Maximum rank =  0   Radius =  0.650 angstrom
                   Q00  =  -0.090669

C          x =  2.897252  y = -3.687867  z =  1.335223 angstrom
           Maximum rank =  0   Radius =  0.650 angstrom
                   Q00  =  -0.095377

C          x =  2.399252  y = -1.419867  z =  2.056223 angstrom
           Maximum rank =  0   Radius =  0.650 angstrom
                   Q00  =  -0.079414

C          x =  2.980252  y = -2.664867  z =  2.270223 angstrom
           Maximum rank =  0   Radius =  0.650 angstrom
                   Q00  =  -0.056557

H          x =  0.951252  y = -2.115867  z = -0.885777 angstrom
           Maximum rank =  0   Radius =  0.325 angstrom
                   Q00  =   0.057480

H          x =  1.985252  y = -4.260867  z = -0.512777 angstrom
           Maximum rank =  0   Radius =  0.325 angstrom
                   Q00  =   0.052296

H          x =  1.215252  y = -0.251867  z =  0.707223 angstrom
           Maximum rank =  0   Radius =  0.325 angstrom
                   Q00  =   0.060693

H          x =  2.493252  y = -0.638867  z =  2.797223 angstrom
           Maximum rank =  0   Radius =  0.325 angstrom
                   Q00  =   0.064978

H          x =  2.756252  y = -5.768867  z =  1.409223 angstrom
           Maximum rank =  0   Radius =  0.325 angstrom
                   Q00  =   0.102099

H          x =  3.812252  y = -5.097867  z =  2.641223 angstrom
           Maximum rank =  0   Radius =  0.325 angstrom
                   Q00  =   0.097755

H          x =  3.499252  y = -2.840867  z =  3.196223 angstrom
           Maximum rank =  0   Radius =  0.325 angstrom
                   Q00  =   0.053910

H          x =  4.354472  y = -5.273482  z =  0.944478 angstrom
           Maximum rank =  0   Radius =  0.325 angstrom
                   Q00  =   0.103097

Total multipoles referred to origin at
           x =   0.000000,  y =    0.000000,  z =    0.000000 angstrom
                   Q00  =  -0.000000

Finished at 4:12:25 on 28 Apr 2020  

  DMA results are available in the Python driver through the
	  variable('DMA DISTRIBUTED MULTIPOLES')
  and
	  variable('DMA TOTAL MULTIPOLES')
  commands.


    Psi4 stopped on: Tuesday, 28 April 2020 04:12AM
    Psi4 wall time for execution: 0:18:02.14

*** Psi4 exiting successfully. Buy a developer a beer!
