
    -----------------------------------------------------------------------
          Psi4: An Open-Source Ab Initio Electronic Structure Package
                               Psi4 1.3.2 release

                         Git: Rev {HEAD} ecbda83 


    R. M. Parrish, L. A. Burns, D. G. A. Smith, A. C. Simmonett,
    A. E. DePrince III, E. G. Hohenstein, U. Bozkaya, A. Yu. Sokolov,
    R. Di Remigio, R. M. Richard, J. F. Gonthier, A. M. James,
    H. R. McAlexander, A. Kumar, M. Saitow, X. Wang, B. P. Pritchard,
    P. Verma, H. F. Schaefer III, K. Patkowski, R. A. King, E. F. Valeev,
    F. A. Evangelista, J. M. Turney, T. D. Crawford, and C. D. Sherrill,
    J. Chem. Theory Comput. 13(7) pp 3185--3197 (2017).
    (doi: 10.1021/acs.jctc.7b00174)


                         Additional Contributions by
    P. Kraus, H. Kruse, M. H. Lechner, M. C. Schieber, R. A. Shaw,
    A. Alenaizan, R. Galvelis, Z. L. Glick, S. Lehtola, and J. P. Misiewicz

    -----------------------------------------------------------------------


    Psi4 started on: Tuesday, 28 April 2020 02:43PM

    Process ID: 8304
    Host:       ds3
    PSIDATADIR: /theoryfs2/ds/metcalf/miniconda2/envs/tf2gpu/share/psi4
    Memory:     500.0 MiB
    Threads:    1
    
  ==> Input File <==

--------------------------------------------------------------------------
import numpy as np
set {scf_type pk
basis cc-pvdz
d_convergence 10
gdma_switch   0
gdma_limit    0
gdma_origin   [ 0.0,  0.0,  0.0 ]
}
molecule test {
    units Angstrom
    0 1
    --
    0 1
    C                0.981307989044411    -1.606189132828540    -2.851922538846274
    C                0.214307989044411    -1.649189132828540    -4.172922538846274
    C                2.328307989044411    -2.338189132828540    -2.852922538846274
    H                1.159307989044411    -0.560189132828540    -2.611922538846274
    H                0.349307989044411    -2.029189132828539    -2.070922538846274
    H                0.006307989044411    -2.696189132828540    -4.389922538846274
    H                2.911307989044411    -2.074189132828540    -3.733922538846274
    H                0.855337989044411    -1.230869132828540    -4.962922538846274
    H               -0.775712010955589    -1.195369132828540    -4.018272538846274
    H                2.918717989044411    -2.032129132828540    -1.976712538846274
    H                2.161637989044411    -3.425489132828540    -2.852202538846274
    C               -1.210692010955589     2.890810867171461     2.835077461153726
    C               -0.092692010955589    -0.624189132828540     0.619077461153726
    C                0.052307989044411     0.639810867171460     0.042077461153726
    C               -0.588692010955589    -0.740189132828540     1.919077461153726
    C               -0.298692010955589     1.780810867171460     0.768077461153726
    C               -0.933692010955589     0.403810867171460     2.639077461153726
    C               -0.795692010955589     1.667810867171460     2.069077461153726
    H                0.176307989044411    -1.513189132828540     0.070077461153726
    H                0.429307989044411     0.745810867171460    -0.963922538846274
    H               -0.725692010955589    -1.716189132828540     2.362077461153726
    H               -0.186692010955589     2.753810867171461     0.312077461153726
    H               -1.306692010955589     0.299810867171460     3.646077461153726
    H               -0.480692010955589     3.679810867171461     2.642077461153726
    H               -1.183692010955589     2.670810867171460     3.902077461153726
    H               -2.213372010955589     3.261240867171460     2.575417461153726

}
e, wfn = energy('scf', return_wfn=True)
gdma(wfn)
dmavals = variable('DMA DISTRIBUTED MULTIPOLES')
charges = np.array(dmavals)
print(charges)
np.save('SSI-150LEU-153PHE-1-dimer.npy', np.array(charges))--------------------------------------------------------------------------

*** tstart() called on ds3
*** at Tue Apr 28 14:43:52 2020

   => Loading Basis Set <=

    Name: CC-PVDZ
    Role: ORBITAL
    Keyword: BASIS
    atoms 1-3, 12-18  entry C          line   138 file /theoryfs2/ds/metcalf/miniconda2/envs/tf2gpu/share/psi4/basis/cc-pvdz.gbs 
    atoms 4-11, 19-26 entry H          line    22 file /theoryfs2/ds/metcalf/miniconda2/envs/tf2gpu/share/psi4/basis/cc-pvdz.gbs 


         ---------------------------------------------------------
                                   SCF
               by Justin Turney, Rob Parrish, Andy Simmonett
                          and Daniel G. A. Smith
                              RHF Reference
                        1 Threads,    500 MiB Core
         ---------------------------------------------------------

  ==> Geometry <==

    Molecular point group: c1
    Full point group: C1

    Geometry (in Angstrom), charge = 0, multiplicity = 1:

       Center              X                  Y                   Z               Mass       
    ------------   -----------------  -----------------  -----------------  -----------------
         C            0.981307989044    -1.606189132829    -2.851922538846    12.000000000000
         C            0.214307989044    -1.649189132829    -4.172922538846    12.000000000000
         C            2.328307989044    -2.338189132829    -2.852922538846    12.000000000000
         H            1.159307989044    -0.560189132829    -2.611922538846     1.007825032230
         H            0.349307989044    -2.029189132829    -2.070922538846     1.007825032230
         H            0.006307989044    -2.696189132829    -4.389922538846     1.007825032230
         H            2.911307989044    -2.074189132829    -3.733922538846     1.007825032230
         H            0.855337989044    -1.230869132829    -4.962922538846     1.007825032230
         H           -0.775712010956    -1.195369132829    -4.018272538846     1.007825032230
         H            2.918717989044    -2.032129132829    -1.976712538846     1.007825032230
         H            2.161637989044    -3.425489132829    -2.852202538846     1.007825032230
         C           -1.210692010956     2.890810867171     2.835077461154    12.000000000000
         C           -0.092692010956    -0.624189132829     0.619077461154    12.000000000000
         C            0.052307989044     0.639810867171     0.042077461154    12.000000000000
         C           -0.588692010956    -0.740189132829     1.919077461154    12.000000000000
         C           -0.298692010956     1.780810867171     0.768077461154    12.000000000000
         C           -0.933692010956     0.403810867171     2.639077461154    12.000000000000
         C           -0.795692010956     1.667810867171     2.069077461154    12.000000000000
         H            0.176307989044    -1.513189132829     0.070077461154     1.007825032230
         H            0.429307989044     0.745810867171    -0.963922538846     1.007825032230
         H           -0.725692010956    -1.716189132829     2.362077461154     1.007825032230
         H           -0.186692010956     2.753810867171     0.312077461154     1.007825032230
         H           -1.306692010956     0.299810867171     3.646077461154     1.007825032230
         H           -0.480692010956     3.679810867171     2.642077461154     1.007825032230
         H           -1.183692010956     2.670810867171     3.902077461154     1.007825032230
         H           -2.213372010956     3.261240867171     2.575417461154     1.007825032230

  Running in c1 symmetry.

  Rotational constants: A =      0.09718  B =      0.01335  C =      0.01255 [cm^-1]
  Rotational constants: A =   2913.36783  B =    400.23800  C =    376.23045 [MHz]
  Nuclear repulsion =  471.583176630728758

  Charge       = 0
  Multiplicity = 1
  Electrons    = 76
  Nalpha       = 38
  Nbeta        = 38

  ==> Algorithm <==

  SCF Algorithm Type is PK.
  DIIS enabled.
  MOM disabled.
  Fractional occupation disabled.
  Guess Type is SAD.
  Energy threshold   = 1.00e-06
  Density threshold  = 1.00e-10
  Integral threshold = 0.00e+00

  ==> Primary Basis <==

  Basis Set: CC-PVDZ
    Blend: CC-PVDZ
    Number of shells: 108
    Number of basis function: 220
    Number of Cartesian functions: 230
    Spherical Harmonics?: true
    Max angular momentum: 2

  ==> Pre-Iterations <==

   -------------------------------------------------------
    Irrep   Nso     Nmo     Nalpha   Nbeta   Ndocc  Nsocc
   -------------------------------------------------------
     A        220     220       0       0       0       0
   -------------------------------------------------------
    Total     220     220      38      38      38       0
   -------------------------------------------------------

  ==> Integral Setup <==

  Using integral reordering PK algorithm.
  Sizing the integral batches needed.
  Building batch lookup table.
   Calculation information:
      Number of atoms:                  26
      Number of AO shells:             108
      Number of primitives:            300
      Number of atomic orbitals:       230
      Number of basis functions:       220

      Integral cutoff                 1.00e-12
      Number of threads:                 1

	Batch   1 pq = [       0,    9405] index = [             0,44231715] size =     44231715
	Batch   2 pq = [    9405,   13301] index = [      44231715,88464951] size =     44233236
	Batch   3 pq = [   13301,   16290] index = [      88464951,132690195] size =     44225244
	Batch   4 pq = [   16290,   18810] index = [     132690195,176917455] size =     44227260
	Batch   5 pq = [   18810,   21030] index = [     176917455,221140965] size =     44223510
	Batch   6 pq = [   21030,   23037] index = [     221140965,265363203] size =     44222238
	Batch   7 pq = [   23037,   24310] index = [     265363203,295500205] size =     30137002
  Task number: 27
  Buffer size: 11059200
  Buffer per thread: 2
  We computed 13033524 shell quartets total.
  Whereas there are 17325441 unique shell quartets.

  ==> DiskJK: Disk-Based J/K Matrices <==

    J tasked:                  Yes
    K tasked:                  Yes
    wK tasked:                  No
    Memory [MiB]:              375
    Schwarz Cutoff:          1E-12

    OpenMP threads:              1

  Minimum eigenvalue in the overlap matrix is 3.0848488359E-04.
  Using Symmetric Orthogonalization.

  SCF Guess: Superposition of Atomic Densities via on-the-fly atomic UHF.

  ==> Iterations <==

                        Total Energy        Delta E     RMS |[F,P]|

   @RHF iter SAD:  -386.85934128559393   -3.86859e+02   0.00000e+00 
   @RHF iter   1:  -387.76959050342919   -9.10249e-01   2.73806e-03 DIIS
   @RHF iter   2:  -387.98806208856058   -2.18472e-01   1.14046e-03 DIIS
   @RHF iter   3:  -388.02244095344986   -3.43789e-02   2.50572e-04 DIIS
   @RHF iter   4:  -388.02532530408735   -2.88435e-03   5.46057e-05 DIIS
   @RHF iter   5:  -388.02542099296090   -9.56889e-05   1.77500e-05 DIIS
   @RHF iter   6:  -388.02543076237998   -9.76942e-06   5.03397e-06 DIIS
   @RHF iter   7:  -388.02543166550174   -9.03122e-07   1.15046e-06 DIIS
   @RHF iter   8:  -388.02543171971172   -5.42100e-08   2.63912e-07 DIIS
   @RHF iter   9:  -388.02543172438232   -4.67060e-09   9.21802e-08 DIIS
   @RHF iter  10:  -388.02543172501413   -6.31815e-10   4.17367e-08 DIIS
   @RHF iter  11:  -388.02543172519893   -1.84798e-10   1.68810e-08 DIIS
   @RHF iter  12:  -388.02543172524321   -4.42810e-11   7.81430e-09 DIIS
   @RHF iter  13:  -388.02543172525094   -7.73070e-12   3.36469e-09 DIIS
   @RHF iter  14:  -388.02543172525310   -2.16005e-12   1.02517e-09 DIIS
   @RHF iter  15:  -388.02543172525304    5.68434e-14   3.55792e-10 DIIS
   @RHF iter  16:  -388.02543172525293    1.13687e-13   1.15161e-10 DIIS
   @RHF iter  17:  -388.02543172525117    1.76215e-12   5.34674e-11 DIIS
  Energy and wave function converged.


  ==> Post-Iterations <==

    Orbital Energies [Eh]
    ---------------------

    Doubly Occupied:                                                      

       1A    -11.239729     2A    -11.235315     3A    -11.235032  
       4A    -11.230742     5A    -11.230218     6A    -11.229462  
       7A    -11.228317     8A    -11.220524     9A    -11.219012  
      10A    -11.218780    11A     -1.149675    12A     -1.054563  
      13A     -1.042641    14A     -1.009601    15A     -0.929591  
      16A     -0.926358    17A     -0.823539    18A     -0.796570  
      19A     -0.794185    20A     -0.689331    21A     -0.633873  
      22A     -0.629075    23A     -0.627006    24A     -0.595813  
      25A     -0.581382    26A     -0.575890    27A     -0.561479  
      28A     -0.550643    29A     -0.534274    30A     -0.533922  
      31A     -0.486553    32A     -0.484237    33A     -0.482198  
      34A     -0.474737    35A     -0.466986    36A     -0.462126  
      37A     -0.330488    38A     -0.320112  

    Virtual:                                                              

      39A      0.135275    40A      0.141328    41A      0.173102  
      42A      0.190541    43A      0.208506    44A      0.213138  
      45A      0.225796    46A      0.231076    47A      0.241557  
      48A      0.251807    49A      0.262690    50A      0.265818  
      51A      0.275521    52A      0.287845    53A      0.290899  
      54A      0.301233    55A      0.346603    56A      0.357490  
      57A      0.362419    58A      0.368678    59A      0.390183  
      60A      0.421351    61A      0.455161    62A      0.477900  
      63A      0.486678    64A      0.492724    65A      0.558763  
      66A      0.571758    67A      0.596065    68A      0.608418  
      69A      0.620073    70A      0.624738    71A      0.636016  
      72A      0.668603    73A      0.686294    74A      0.696532  
      75A      0.710714    76A      0.733558    77A      0.739237  
      78A      0.744581    79A      0.746050    80A      0.757119  
      81A      0.769015    82A      0.774790    83A      0.780604  
      84A      0.795099    85A      0.810610    86A      0.837937  
      87A      0.849324    88A      0.863191    89A      0.870127  
      90A      0.876412    91A      0.886206    92A      0.889984  
      93A      0.895632    94A      0.896183    95A      0.900439  
      96A      0.906375    97A      0.908891    98A      0.922844  
      99A      0.927043   100A      0.927688   101A      0.929710  
     102A      0.941027   103A      0.959704   104A      0.986820  
     105A      0.996576   106A      1.021246   107A      1.035321  
     108A      1.051649   109A      1.112005   110A      1.115822  
     111A      1.132522   112A      1.145325   113A      1.155831  
     114A      1.182458   115A      1.206713   116A      1.221783  
     117A      1.239681   118A      1.247714   119A      1.255121  
     120A      1.286755   121A      1.307456   122A      1.311530  
     123A      1.324775   124A      1.328014   125A      1.382952  
     126A      1.414185   127A      1.472253   128A      1.493487  
     129A      1.512228   130A      1.524309   131A      1.554378  
     132A      1.559437   133A      1.600350   134A      1.647177  
     135A      1.665311   136A      1.678348   137A      1.683301  
     138A      1.699227   139A      1.708364   140A      1.738037  
     141A      1.745265   142A      1.755693   143A      1.788153  
     144A      1.810234   145A      1.855251   146A      1.861070  
     147A      1.868347   148A      1.882596   149A      1.885153  
     150A      1.898972   151A      1.908204   152A      1.911459  
     153A      1.915768   154A      1.922920   155A      1.928837  
     156A      1.936364   157A      1.940377   158A      1.947825  
     159A      1.956874   160A      1.972406   161A      1.986040  
     162A      1.989038   163A      1.996039   164A      2.001220  
     165A      2.011336   166A      2.012058   167A      2.033107  
     168A      2.043102   169A      2.071151   170A      2.074661  
     171A      2.108116   172A      2.133373   173A      2.142857  
     174A      2.158209   175A      2.177594   176A      2.181998  
     177A      2.193482   178A      2.211729   179A      2.255820  
     180A      2.257239   181A      2.276575   182A      2.292725  
     183A      2.300139   184A      2.301001   185A      2.315742  
     186A      2.333941   187A      2.344363   188A      2.356932  
     189A      2.463270   190A      2.477251   191A      2.501252  
     192A      2.509584   193A      2.511105   194A      2.541587  
     195A      2.587733   196A      2.612808   197A      2.620855  
     198A      2.631239   199A      2.740642   200A      2.751840  
     201A      2.756672   202A      2.766514   203A      2.770654  
     204A      2.780336   205A      2.793248   206A      2.808654  
     207A      2.814058   208A      2.848702   209A      2.876892  
     210A      2.915299   211A      2.950820   212A      2.964337  
     213A      2.978289   214A      3.004411   215A      3.024996  
     216A      3.099688   217A      3.154597   218A      3.204630  
     219A      3.298378   220A      3.962021  

    Final Occupation by Irrep:
              A 
    DOCC [    38 ]

  @RHF Final Energy:  -388.02543172525117

   => Energetics <=

    Nuclear Repulsion Energy =            471.5831766307287580
    One-Electron Energy =               -1457.5492542293488896
    Two-Electron Energy =                 597.9406458733689078
    Total Energy =                       -388.0254317252512237

Computation Completed


Properties will be evaluated at   0.000000,   0.000000,   0.000000 [a0]

Properties computed using the SCF density matrix

  Nuclear Dipole Moment: [e a0]
     X:     3.8389      Y:    -4.7452      Z:   -11.3160

  Electronic Dipole Moment: [e a0]
     X:    -3.8908      Y:     4.8370      Z:    11.3746

  Dipole Moment: [e a0]
     X:    -0.0519      Y:     0.0918      Z:     0.0586     Total:     0.1206

  Dipole Moment: [D]
     X:    -0.1318      Y:     0.2333      Z:     0.1489     Total:     0.3065


*** tstop() called on ds3 at Tue Apr 28 14:47:28 2020
Module time:
	user time   =      97.86 seconds =       1.63 minutes
	system time =      42.70 seconds =       0.71 minutes
	total time  =        216 seconds =       3.60 minutes
Total time:
	user time   =      97.86 seconds =       1.63 minutes
	system time =      42.70 seconds =       0.71 minutes
	total time  =        216 seconds =       3.60 minutes
                                     G D M A

                                 by Anthony Stone

                           version 2.2.06, 22 June 2011

               Distributed Multipoles from Gaussian wavefunctions


Starting at 14:47:28 on 28 Apr 2020 


Using SCF density matrix from file ./SSI/SSI-150LEU-153PHE-1-dimer.test.8304.fchk


                         Distributed Multipole Analysis

Standard DMA

Positions and radii in angstrom
Multipole moments in atomic units, ea_0^k for rank k

C          x =  0.981308  y = -1.606189  z = -2.851923 angstrom
           Maximum rank =  0   Radius =  0.650 angstrom
                   Q00  =  -0.084511

C          x =  0.214308  y = -1.649189  z = -4.172923 angstrom
           Maximum rank =  0   Radius =  0.650 angstrom
                   Q00  =  -0.205795

C          x =  2.328308  y = -2.338189  z = -2.852923 angstrom
           Maximum rank =  0   Radius =  0.650 angstrom
                   Q00  =  -0.248565

H          x =  1.159308  y = -0.560189  z = -2.611923 angstrom
           Maximum rank =  0   Radius =  0.325 angstrom
                   Q00  =   0.037235

H          x =  0.349308  y = -2.029189  z = -2.070923 angstrom
           Maximum rank =  0   Radius =  0.325 angstrom
                   Q00  =   0.042996

H          x =  0.006308  y = -2.696189  z = -4.389923 angstrom
           Maximum rank =  0   Radius =  0.325 angstrom
                   Q00  =   0.072426

H          x =  2.911308  y = -2.074189  z = -3.733923 angstrom
           Maximum rank =  0   Radius =  0.325 angstrom
                   Q00  =   0.077937

H          x =  0.855338  y = -1.230869  z = -4.962923 angstrom
           Maximum rank =  0   Radius =  0.325 angstrom
                   Q00  =   0.068961

H          x = -0.775712  y = -1.195369  z = -4.018273 angstrom
           Maximum rank =  0   Radius =  0.325 angstrom
                   Q00  =   0.076097

H          x =  2.918718  y = -2.032129  z = -1.976713 angstrom
           Maximum rank =  0   Radius =  0.325 angstrom
                   Q00  =   0.085557

H          x =  2.161638  y = -3.425489  z = -2.852203 angstrom
           Maximum rank =  0   Radius =  0.325 angstrom
                   Q00  =   0.078377

C          x = -1.210692  y =  2.890811  z =  2.835077 angstrom
           Maximum rank =  0   Radius =  0.650 angstrom
                   Q00  =  -0.197452

C          x = -0.092692  y = -0.624189  z =  0.619077 angstrom
           Maximum rank =  0   Radius =  0.650 angstrom
                   Q00  =  -0.098510

C          x =  0.052308  y =  0.639811  z =  0.042077 angstrom
           Maximum rank =  0   Radius =  0.650 angstrom
                   Q00  =  -0.067729

C          x = -0.588692  y = -0.740189  z =  1.919077 angstrom
           Maximum rank =  0   Radius =  0.650 angstrom
                   Q00  =  -0.068887

C          x = -0.298692  y =  1.780811  z =  0.768077 angstrom
           Maximum rank =  0   Radius =  0.650 angstrom
                   Q00  =  -0.059384

C          x = -0.933692  y =  0.403811  z =  2.639077 angstrom
           Maximum rank =  0   Radius =  0.650 angstrom
                   Q00  =  -0.012244

C          x = -0.795692  y =  1.667811  z =  2.069077 angstrom
           Maximum rank =  0   Radius =  0.650 angstrom
                   Q00  =  -0.098605

H          x =  0.176308  y = -1.513189  z =  0.070077 angstrom
           Maximum rank =  0   Radius =  0.325 angstrom
                   Q00  =   0.060231

H          x =  0.429308  y =  0.745811  z = -0.963923 angstrom
           Maximum rank =  0   Radius =  0.325 angstrom
                   Q00  =   0.066229

H          x = -0.725692  y = -1.716189  z =  2.362077 angstrom
           Maximum rank =  0   Radius =  0.325 angstrom
                   Q00  =   0.064631

H          x = -0.186692  y =  2.753811  z =  0.312077 angstrom
           Maximum rank =  0   Radius =  0.325 angstrom
                   Q00  =   0.055339

H          x = -1.306692  y =  0.299811  z =  3.646077 angstrom
           Maximum rank =  0   Radius =  0.325 angstrom
                   Q00  =   0.057035

H          x = -0.480692  y =  3.679811  z =  2.642077 angstrom
           Maximum rank =  0   Radius =  0.325 angstrom
                   Q00  =   0.096890

H          x = -1.183692  y =  2.670811  z =  3.902077 angstrom
           Maximum rank =  0   Radius =  0.325 angstrom
                   Q00  =   0.096906

H          x = -2.213372  y =  3.261241  z =  2.575417 angstrom
           Maximum rank =  0   Radius =  0.325 angstrom
                   Q00  =   0.104837

Total multipoles referred to origin at
           x =   0.000000,  y =    0.000000,  z =    0.000000 angstrom
                   Q00  =  -0.000000

Finished at 14:47:28 on 28 Apr 2020 

  DMA results are available in the Python driver through the
	  variable('DMA DISTRIBUTED MULTIPOLES')
  and
	  variable('DMA TOTAL MULTIPOLES')
  commands.


    Psi4 stopped on: Tuesday, 28 April 2020 02:47PM
    Psi4 wall time for execution: 0:03:35.79

*** Psi4 exiting successfully. Buy a developer a beer!
