
    -----------------------------------------------------------------------
          Psi4: An Open-Source Ab Initio Electronic Structure Package
                               Psi4 1.3.2 release

                         Git: Rev {HEAD} ecbda83 


    R. M. Parrish, L. A. Burns, D. G. A. Smith, A. C. Simmonett,
    A. E. DePrince III, E. G. Hohenstein, U. Bozkaya, A. Yu. Sokolov,
    R. Di Remigio, R. M. Richard, J. F. Gonthier, A. M. James,
    H. R. McAlexander, A. Kumar, M. Saitow, X. Wang, B. P. Pritchard,
    P. Verma, H. F. Schaefer III, K. Patkowski, R. A. King, E. F. Valeev,
    F. A. Evangelista, J. M. Turney, T. D. Crawford, and C. D. Sherrill,
    J. Chem. Theory Comput. 13(7) pp 3185--3197 (2017).
    (doi: 10.1021/acs.jctc.7b00174)


                         Additional Contributions by
    P. Kraus, H. Kruse, M. H. Lechner, M. C. Schieber, R. A. Shaw,
    A. Alenaizan, R. Galvelis, Z. L. Glick, S. Lehtola, and J. P. Misiewicz

    -----------------------------------------------------------------------


    Psi4 started on: Monday, 27 April 2020 09:43PM

    Process ID: 6438
    Host:       ds3
    PSIDATADIR: /theoryfs2/ds/metcalf/miniconda2/envs/tf2gpu/share/psi4
    Memory:     500.0 MiB
    Threads:    1
    
  ==> Input File <==

--------------------------------------------------------------------------
import numpy as np
set {scf_type pk
basis cc-pvdz
d_convergence 10
gdma_switch   0
gdma_limit    0
gdma_origin   [ 0.0,  0.0,  0.0 ]
}
molecule test {
    units Angstrom
    -1 1
    --
    -1 1
    C                3.102299682648603     0.454466781273306     0.151090757686081
    C                2.486299682648603     1.681466781273306    -0.515909242313919
    O                1.240299682648603     1.736466781273306    -0.598909242313919
    O                3.233299682648603     2.578466781273306    -0.967909242313919
    H                2.940299682648603    -0.405533218726694    -0.501909242313919
    H                2.586299682648603     0.251466781273306     1.090090757686081
    H                4.184209682648603     0.536096781273306     0.332240757686081
    C               -2.629700317351397    -2.784533218726694     1.606090757686081
    C               -1.900700317351397    -0.197533218726694    -0.842909242313919
    C               -0.860700317351397    -1.013533218726694     0.917090757686081
    C               -2.031700317351397    -1.688533218726694     0.770090757686081
    N               -0.804700317351397    -0.086533218726694    -0.100909242313919
    N               -2.664700317351397    -1.162533218726694    -0.338909242313919
    H               -0.061700317351397     0.603466781273306    -0.257909242313919
    H               -2.134700317351397     0.409466781273306    -1.710909242313919
    H               -0.118700317351397    -1.172533218726694     1.689090757686081
    H               -3.624700317351397    -2.471533218726694     1.927090757686081
    H               -2.015700317351397    -2.878533218726695     2.491090757686081
    H               -2.709980317351397    -3.750723218726694     1.086440757686081

}
e, wfn = energy('scf', return_wfn=True)
gdma(wfn)
dmavals = variable('DMA DISTRIBUTED MULTIPOLES')
charges = np.array(dmavals)
print(charges)
np.save('SSI-024GLU-040HIE-1-dimer.npy', np.array(charges))--------------------------------------------------------------------------

*** tstart() called on ds3
*** at Mon Apr 27 21:43:21 2020

   => Loading Basis Set <=

    Name: CC-PVDZ
    Role: ORBITAL
    Keyword: BASIS
    atoms 1-2, 8-11  entry C          line   138 file /theoryfs2/ds/metcalf/miniconda2/envs/tf2gpu/share/psi4/basis/cc-pvdz.gbs 
    atoms 3-4        entry O          line   198 file /theoryfs2/ds/metcalf/miniconda2/envs/tf2gpu/share/psi4/basis/cc-pvdz.gbs 
    atoms 5-7, 14-19 entry H          line    22 file /theoryfs2/ds/metcalf/miniconda2/envs/tf2gpu/share/psi4/basis/cc-pvdz.gbs 
    atoms 12-13      entry N          line   168 file /theoryfs2/ds/metcalf/miniconda2/envs/tf2gpu/share/psi4/basis/cc-pvdz.gbs 


         ---------------------------------------------------------
                                   SCF
               by Justin Turney, Rob Parrish, Andy Simmonett
                          and Daniel G. A. Smith
                              RHF Reference
                        1 Threads,    500 MiB Core
         ---------------------------------------------------------

  ==> Geometry <==

    Molecular point group: c1
    Full point group: C1

    Geometry (in Angstrom), charge = -1, multiplicity = 1:

       Center              X                  Y                   Z               Mass       
    ------------   -----------------  -----------------  -----------------  -----------------
         C            3.102299682649     0.454466781273     0.151090757686    12.000000000000
         C            2.486299682649     1.681466781273    -0.515909242314    12.000000000000
         O            1.240299682649     1.736466781273    -0.598909242314    15.994914619570
         O            3.233299682649     2.578466781273    -0.967909242314    15.994914619570
         H            2.940299682649    -0.405533218727    -0.501909242314     1.007825032230
         H            2.586299682649     0.251466781273     1.090090757686     1.007825032230
         H            4.184209682649     0.536096781273     0.332240757686     1.007825032230
         C           -2.629700317351    -2.784533218727     1.606090757686    12.000000000000
         C           -1.900700317351    -0.197533218727    -0.842909242314    12.000000000000
         C           -0.860700317351    -1.013533218727     0.917090757686    12.000000000000
         C           -2.031700317351    -1.688533218727     0.770090757686    12.000000000000
         N           -0.804700317351    -0.086533218727    -0.100909242314    14.003074004430
         N           -2.664700317351    -1.162533218727    -0.338909242314    14.003074004430
         H           -0.061700317351     0.603466781273    -0.257909242314     1.007825032230
         H           -2.134700317351     0.409466781273    -1.710909242314     1.007825032230
         H           -0.118700317351    -1.172533218727     1.689090757686     1.007825032230
         H           -3.624700317351    -2.471533218727     1.927090757686     1.007825032230
         H           -2.015700317351    -2.878533218727     2.491090757686     1.007825032230
         H           -2.709980317351    -3.750723218727     1.086440757686     1.007825032230

  Running in c1 symmetry.

  Rotational constants: A =      0.12125  B =      0.01544  C =      0.01395 [cm^-1]
  Rotational constants: A =   3635.13313  B =    462.84083  C =    418.23009 [MHz]
  Nuclear repulsion =  481.293395750180764

  Charge       = -1
  Multiplicity = 1
  Electrons    = 76
  Nalpha       = 38
  Nbeta        = 38

  ==> Algorithm <==

  SCF Algorithm Type is PK.
  DIIS enabled.
  MOM disabled.
  Fractional occupation disabled.
  Guess Type is SAD.
  Energy threshold   = 1.00e-06
  Density threshold  = 1.00e-10
  Integral threshold = 0.00e+00

  ==> Primary Basis <==

  Basis Set: CC-PVDZ
    Blend: CC-PVDZ
    Number of shells: 87
    Number of basis function: 185
    Number of Cartesian functions: 195
    Spherical Harmonics?: true
    Max angular momentum: 2

  ==> Pre-Iterations <==

   -------------------------------------------------------
    Irrep   Nso     Nmo     Nalpha   Nbeta   Ndocc  Nsocc
   -------------------------------------------------------
     A        185     185       0       0       0       0
   -------------------------------------------------------
    Total     185     185      38      38      38       0
   -------------------------------------------------------

  ==> Integral Setup <==

  Using integral reordering PK algorithm.
  Sizing the integral batches needed.
  Building batch lookup table.
   Calculation information:
      Number of atoms:                  19
      Number of AO shells:              87
      Number of primitives:            265
      Number of atomic orbitals:       195
      Number of basis functions:       185

      Integral cutoff                 1.00e-12
      Number of threads:                 1

	Batch   1 pq = [       0,    9405] index = [             0,44231715] size =     44231715
	Batch   2 pq = [    9405,   13301] index = [      44231715,88464951] size =     44233236
	Batch   3 pq = [   13301,   16290] index = [      88464951,132690195] size =     44225244
	Batch   4 pq = [   16290,   17205] index = [     132690195,148014615] size =     15324420
  Task number: 14
  Buffer size: 11059200
  Buffer per thread: 2
  We computed 5455297 shell quartets total.
  Whereas there are 7328706 unique shell quartets.

  ==> DiskJK: Disk-Based J/K Matrices <==

    J tasked:                  Yes
    K tasked:                  Yes
    wK tasked:                  No
    Memory [MiB]:              375
    Schwarz Cutoff:          1E-12

    OpenMP threads:              1

  Minimum eigenvalue in the overlap matrix is 1.2051631580E-03.
  Using Symmetric Orthogonalization.

  SCF Guess: Superposition of Atomic Densities via on-the-fly atomic UHF.

  ==> Iterations <==

                        Total Energy        Delta E     RMS |[F,P]|

   @RHF iter SAD:  -489.75353833409298   -4.89754e+02   0.00000e+00 
   @RHF iter   1:  -490.85498742378638   -1.10145e+00   4.11802e-03 DIIS
   @RHF iter   2:  -491.07729727596444   -2.22310e-01   2.33348e-03 DIIS
   @RHF iter   3:  -491.14711357931600   -6.98163e-02   4.01470e-04 DIIS
   @RHF iter   4:  -491.15051363887432   -3.40006e-03   1.59935e-04 DIIS
   @RHF iter   5:  -491.15105197705122   -5.38338e-04   3.46724e-05 DIIS
   @RHF iter   6:  -491.15108016020213   -2.81832e-05   1.45615e-05 DIIS
   @RHF iter   7:  -491.15108572677462   -5.56657e-06   3.84345e-06 DIIS
   @RHF iter   8:  -491.15108663842750   -9.11653e-07   2.01418e-06 DIIS
   @RHF iter   9:  -491.15108686840313   -2.29976e-07   7.77446e-07 DIIS
   @RHF iter  10:  -491.15108691116745   -4.27643e-08   2.02852e-07 DIIS
   @RHF iter  11:  -491.15108691366652   -2.49906e-09   5.42969e-08 DIIS
   @RHF iter  12:  -491.15108691379379   -1.27272e-10   2.91214e-08 DIIS
   @RHF iter  13:  -491.15108691382375   -2.99565e-11   1.12704e-08 DIIS
   @RHF iter  14:  -491.15108691383335   -9.60654e-12   3.94494e-09 DIIS
   @RHF iter  15:  -491.15108691383091    2.44427e-12   1.70316e-09 DIIS
   @RHF iter  16:  -491.15108691383460   -3.69482e-12   5.79348e-10 DIIS
   @RHF iter  17:  -491.15108691383080    3.80851e-12   2.38914e-10 DIIS
   @RHF iter  18:  -491.15108691383284   -2.04636e-12   6.43322e-11 DIIS
  Energy and wave function converged.


  ==> Post-Iterations <==

    Orbital Energies [Eh]
    ---------------------

    Doubly Occupied:                                                      

       1A    -20.300662     2A    -20.287314     3A    -15.468900  
       4A    -15.406269     5A    -11.165120     6A    -11.149807  
       7A    -11.130947     8A    -11.129394     9A    -11.124252  
      10A    -11.074251    11A     -1.207203    12A     -1.184520  
      13A     -1.070742    14A     -1.020724    15A     -0.917755  
      16A     -0.829675    17A     -0.820544    18A     -0.683237  
      19A     -0.636773    20A     -0.614640    21A     -0.533357  
      22A     -0.492655    23A     -0.485695    24A     -0.472495  
      25A     -0.448981    26A     -0.440628    27A     -0.435932  
      28A     -0.432133    29A     -0.424043    30A     -0.413774  
      31A     -0.372046    32A     -0.335366    33A     -0.292828  
      34A     -0.249730    35A     -0.220143    36A     -0.203069  
      37A     -0.196773    38A     -0.190532  

    Virtual:                                                              

      39A      0.288373    40A      0.311491    41A      0.318699  
      42A      0.326561    43A      0.334165    44A      0.344411  
      45A      0.364333    46A      0.387986    47A      0.397625  
      48A      0.420404    49A      0.457698    50A      0.465547  
      51A      0.486181    52A      0.517621    53A      0.546753  
      54A      0.582254    55A      0.596776    56A      0.611779  
      57A      0.674905    58A      0.710914    59A      0.726839  
      60A      0.732682    61A      0.738940    62A      0.779657  
      63A      0.797159    64A      0.816740    65A      0.821988  
      66A      0.843605    67A      0.872780    68A      0.895464  
      69A      0.904657    70A      0.917905    71A      0.935325  
      72A      0.945334    73A      0.950096    74A      0.966282  
      75A      0.979372    76A      1.000238    77A      1.004574  
      78A      1.019215    79A      1.021235    80A      1.033426  
      81A      1.058773    82A      1.072198    83A      1.076691  
      84A      1.093004    85A      1.103300    86A      1.169956  
      87A      1.197329    88A      1.203789    89A      1.212817  
      90A      1.240552    91A      1.252025    92A      1.260406  
      93A      1.286527    94A      1.320100    95A      1.326610  
      96A      1.377066    97A      1.399849    98A      1.421092  
      99A      1.430256   100A      1.451106   101A      1.484688  
     102A      1.509636   103A      1.541943   104A      1.546299  
     105A      1.555736   106A      1.570610   107A      1.599475  
     108A      1.625354   109A      1.639285   110A      1.653204  
     111A      1.688346   112A      1.703595   113A      1.712016  
     114A      1.746298   115A      1.777323   116A      1.818608  
     117A      1.825763   118A      1.830193   119A      1.897914  
     120A      1.912594   121A      1.925506   122A      1.946261  
     123A      1.991616   124A      2.004277   125A      2.021943  
     126A      2.042058   127A      2.049613   128A      2.066973  
     129A      2.078279   130A      2.094121   131A      2.099210  
     132A      2.110614   133A      2.127035   134A      2.155343  
     135A      2.188963   136A      2.200421   137A      2.213543  
     138A      2.228703   139A      2.277257   140A      2.293516  
     141A      2.319517   142A      2.329835   143A      2.372131  
     144A      2.399337   145A      2.406954   146A      2.444116  
     147A      2.484458   148A      2.508957   149A      2.552935  
     150A      2.574934   151A      2.597057   152A      2.630501  
     153A      2.641134   154A      2.663131   155A      2.715709  
     156A      2.735485   157A      2.784332   158A      2.792179  
     159A      2.853343   160A      2.871179   161A      2.877623  
     162A      2.896900   163A      2.926929   164A      2.940220  
     165A      2.952183   166A      2.966507   167A      3.000893  
     168A      3.007077   169A      3.046909   170A      3.082618  
     171A      3.188124   172A      3.207699   173A      3.259529  
     174A      3.281389   175A      3.303405   176A      3.357895  
     177A      3.395745   178A      3.595181   179A      3.602008  
     180A      3.750925   181A      3.791597   182A      3.932493  
     183A      4.041471   184A      4.107368   185A      4.171330  

    Final Occupation by Irrep:
              A 
    DOCC [    38 ]

  @RHF Final Energy:  -491.15108691383284

   => Energetics <=

    Nuclear Repulsion Energy =            481.2933957501807640
    One-Electron Energy =               -1637.1631476807722265
    Two-Electron Energy =                 664.7186650167586777
    Total Energy =                       -491.1510869138328417

Computation Completed


Properties will be evaluated at   0.000000,   0.000000,   0.000000 [a0]

Properties computed using the SCF density matrix

  Nuclear Dipole Moment: [e a0]
     X:    -0.8634      Y:    -8.2988      Z:     5.7548

  Electronic Dipole Moment: [e a0]
     X:    -1.0584      Y:     5.5255      Z:    -4.3092

  Dipole Moment: [e a0]
     X:    -1.9218      Y:    -2.7734      Z:     1.4456     Total:     3.6708

  Dipole Moment: [D]
     X:    -4.8846      Y:    -7.0492      Z:     3.6743     Total:     9.3301


*** tstop() called on ds3 at Mon Apr 27 21:44:30 2020
Module time:
	user time   =      47.72 seconds =       0.80 minutes
	system time =      23.52 seconds =       0.39 minutes
	total time  =         69 seconds =       1.15 minutes
Total time:
	user time   =      47.72 seconds =       0.80 minutes
	system time =      23.52 seconds =       0.39 minutes
	total time  =         69 seconds =       1.15 minutes
                                     G D M A

                                 by Anthony Stone

                           version 2.2.06, 22 June 2011

               Distributed Multipoles from Gaussian wavefunctions


Starting at 21:44:30 on 27 Apr 2020 


Using SCF density matrix from file ./SSI/SSI-024GLU-040HIE-1-dimer.test.6438.fchk


                         Distributed Multipole Analysis

Standard DMA

Positions and radii in angstrom
Multipole moments in atomic units, ea_0^k for rank k

C          x =  3.102300  y =  0.454467  z =  0.151091 angstrom
           Maximum rank =  0   Radius =  0.650 angstrom
                   Q00  =  -0.288707

C          x =  2.486300  y =  1.681467  z = -0.515909 angstrom
           Maximum rank =  0   Radius =  0.650 angstrom
                   Q00  =   0.942013

O          x =  1.240300  y =  1.736467  z = -0.598909 angstrom
           Maximum rank =  0   Radius =  0.650 angstrom
                   Q00  =  -0.951258

O          x =  3.233300  y =  2.578467  z = -0.967909 angstrom
           Maximum rank =  0   Radius =  0.650 angstrom
                   Q00  =  -0.896313

H          x =  2.940300  y = -0.405533  z = -0.501909 angstrom
           Maximum rank =  0   Radius =  0.325 angstrom
                   Q00  =   0.082643

H          x =  2.586300  y =  0.251467  z =  1.090091 angstrom
           Maximum rank =  0   Radius =  0.325 angstrom
                   Q00  =   0.066092

H          x =  4.184210  y =  0.536097  z =  0.332241 angstrom
           Maximum rank =  0   Radius =  0.325 angstrom
                   Q00  =   0.065000

C          x = -2.629700  y = -2.784533  z =  1.606091 angstrom
           Maximum rank =  0   Radius =  0.650 angstrom
                   Q00  =  -0.186046

C          x = -1.900700  y = -0.197533  z = -0.842909 angstrom
           Maximum rank =  0   Radius =  0.650 angstrom
                   Q00  =   0.482576

C          x = -0.860700  y = -1.013533  z =  0.917091 angstrom
           Maximum rank =  0   Radius =  0.650 angstrom
                   Q00  =   0.046011

C          x = -2.031700  y = -1.688533  z =  0.770091 angstrom
           Maximum rank =  0   Radius =  0.650 angstrom
                   Q00  =   0.173756

N          x = -0.804700  y = -0.086533  z = -0.100909 angstrom
           Maximum rank =  0   Radius =  0.650 angstrom
                   Q00  =  -0.526023

N          x = -2.664700  y = -1.162533  z = -0.338909 angstrom
           Maximum rank =  0   Radius =  0.650 angstrom
                   Q00  =  -0.800043

H          x = -0.061700  y =  0.603467  z = -0.257909 angstrom
           Maximum rank =  0   Radius =  0.325 angstrom
                   Q00  =   0.341516

H          x = -2.134700  y =  0.409467  z = -1.710909 angstrom
           Maximum rank =  0   Radius =  0.325 angstrom
                   Q00  =   0.111680

H          x = -0.118700  y = -1.172533  z =  1.689091 angstrom
           Maximum rank =  0   Radius =  0.325 angstrom
                   Q00  =   0.077573

H          x = -3.624700  y = -2.471533  z =  1.927091 angstrom
           Maximum rank =  0   Radius =  0.325 angstrom
                   Q00  =   0.090563

H          x = -2.015700  y = -2.878533  z =  2.491091 angstrom
           Maximum rank =  0   Radius =  0.325 angstrom
                   Q00  =   0.082001

H          x = -2.709980  y = -3.750723  z =  1.086441 angstrom
           Maximum rank =  0   Radius =  0.325 angstrom
                   Q00  =   0.086966

Total multipoles referred to origin at
           x =   0.000000,  y =    0.000000,  z =    0.000000 angstrom
                   Q00  =  -1.000000

Finished at 21:44:30 on 27 Apr 2020 

  DMA results are available in the Python driver through the
	  variable('DMA DISTRIBUTED MULTIPOLES')
  and
	  variable('DMA TOTAL MULTIPOLES')
  commands.


    Psi4 stopped on: Monday, 27 April 2020 09:44PM
    Psi4 wall time for execution: 0:01:09.17

*** Psi4 exiting successfully. Buy a developer a beer!
