
    -----------------------------------------------------------------------
          Psi4: An Open-Source Ab Initio Electronic Structure Package
                               Psi4 1.3.2 release

                         Git: Rev {HEAD} ecbda83 


    R. M. Parrish, L. A. Burns, D. G. A. Smith, A. C. Simmonett,
    A. E. DePrince III, E. G. Hohenstein, U. Bozkaya, A. Yu. Sokolov,
    R. Di Remigio, R. M. Richard, J. F. Gonthier, A. M. James,
    H. R. McAlexander, A. Kumar, M. Saitow, X. Wang, B. P. Pritchard,
    P. Verma, H. F. Schaefer III, K. Patkowski, R. A. King, E. F. Valeev,
    F. A. Evangelista, J. M. Turney, T. D. Crawford, and C. D. Sherrill,
    J. Chem. Theory Comput. 13(7) pp 3185--3197 (2017).
    (doi: 10.1021/acs.jctc.7b00174)


                         Additional Contributions by
    P. Kraus, H. Kruse, M. H. Lechner, M. C. Schieber, R. A. Shaw,
    A. Alenaizan, R. Galvelis, Z. L. Glick, S. Lehtola, and J. P. Misiewicz

    -----------------------------------------------------------------------


    Psi4 started on: Tuesday, 28 April 2020 12:24AM

    Process ID: 5243
    Host:       ds3
    PSIDATADIR: /theoryfs2/ds/metcalf/miniconda2/envs/tf2gpu/share/psi4
    Memory:     500.0 MiB
    Threads:    1
    
  ==> Input File <==

--------------------------------------------------------------------------
import numpy as np
set {scf_type pk
basis cc-pvdz
d_convergence 10
gdma_switch   0
gdma_limit    0
gdma_origin   [ 0.0,  0.0,  0.0 ]
}
molecule test {
    units Angstrom
    0 1
    --
    0 1
    C                2.690578572068435    -0.040935447463434     1.706080519731930
    C                3.254578572068435    -0.295935447463434     3.096080519731930
    H                3.290578572068435    -0.560935447463434     0.957080519731930
    H                1.658578572068435    -0.381935447463434     1.630080519731930
    H                2.708578572068435     1.028064552536566     1.493080519731930
    H                2.594578572068435     0.185064552536566     3.815080519731930
    H                4.257358572068435     0.151596592536566     3.160555519731930
    H                3.214648572068435    -1.371777447463434     3.321847519731930
    C               -3.001421427931565    -1.321935447463434    -0.746919480268070
    C                0.563578572068435     1.112064552536566    -0.843919480268070
    C                0.642578572068435    -0.260935447463434    -1.100919480268070
    C               -0.668421427931565     1.682064552536566    -0.527919480268070
    C               -0.505421427931565    -1.055935447463434    -1.044919480268070
    C               -1.809421427931565     0.882064552536566    -0.470919480268070
    C               -1.741421427931565    -0.487935447463434    -0.734919480268070
    H                1.451578572068435     1.729064552536566    -0.894919480268070
    H                1.597578572068435    -0.696935447463434    -1.346919480268070
    H               -0.750421427931565     2.746064552536566    -0.359919480268070
    H               -0.435421427931565    -2.112935447463434    -1.255919480268070
    H               -2.759421427931565     1.332064552536566    -0.218919480268070
    H               -2.895421427931565    -2.110935447463434    -1.491919480268070
    H               -3.826421427931565    -0.683935447463434    -1.068919480268070
    H               -3.262411427931565    -1.783694447463434     0.216751019731930

}
e, wfn = energy('scf', return_wfn=True)
gdma(wfn)
dmavals = variable('DMA DISTRIBUTED MULTIPOLES')
charges = np.array(dmavals)
print(charges)
np.save('SSI-056ALA-175PHE-1-dimer.npy', np.array(charges))--------------------------------------------------------------------------

*** tstart() called on ds3
*** at Tue Apr 28 00:24:14 2020

   => Loading Basis Set <=

    Name: CC-PVDZ
    Role: ORBITAL
    Keyword: BASIS
    atoms 1-2, 9-15  entry C          line   138 file /theoryfs2/ds/metcalf/miniconda2/envs/tf2gpu/share/psi4/basis/cc-pvdz.gbs 
    atoms 3-8, 16-23 entry H          line    22 file /theoryfs2/ds/metcalf/miniconda2/envs/tf2gpu/share/psi4/basis/cc-pvdz.gbs 


         ---------------------------------------------------------
                                   SCF
               by Justin Turney, Rob Parrish, Andy Simmonett
                          and Daniel G. A. Smith
                              RHF Reference
                        1 Threads,    500 MiB Core
         ---------------------------------------------------------

  ==> Geometry <==

    Molecular point group: c1
    Full point group: C1

    Geometry (in Angstrom), charge = 0, multiplicity = 1:

       Center              X                  Y                   Z               Mass       
    ------------   -----------------  -----------------  -----------------  -----------------
         C            2.690578572068    -0.040935447463     1.706080519732    12.000000000000
         C            3.254578572068    -0.295935447463     3.096080519732    12.000000000000
         H            3.290578572068    -0.560935447463     0.957080519732     1.007825032230
         H            1.658578572068    -0.381935447463     1.630080519732     1.007825032230
         H            2.708578572068     1.028064552537     1.493080519732     1.007825032230
         H            2.594578572068     0.185064552537     3.815080519732     1.007825032230
         H            4.257358572068     0.151596592537     3.160555519732     1.007825032230
         H            3.214648572068    -1.371777447463     3.321847519732     1.007825032230
         C           -3.001421427932    -1.321935447463    -0.746919480268    12.000000000000
         C            0.563578572068     1.112064552537    -0.843919480268    12.000000000000
         C            0.642578572068    -0.260935447463    -1.100919480268    12.000000000000
         C           -0.668421427932     1.682064552537    -0.527919480268    12.000000000000
         C           -0.505421427932    -1.055935447463    -1.044919480268    12.000000000000
         C           -1.809421427932     0.882064552537    -0.470919480268    12.000000000000
         C           -1.741421427932    -0.487935447463    -0.734919480268    12.000000000000
         H            1.451578572068     1.729064552537    -0.894919480268     1.007825032230
         H            1.597578572068    -0.696935447463    -1.346919480268     1.007825032230
         H           -0.750421427932     2.746064552537    -0.359919480268     1.007825032230
         H           -0.435421427932    -2.112935447463    -1.255919480268     1.007825032230
         H           -2.759421427932     1.332064552537    -0.218919480268     1.007825032230
         H           -2.895421427932    -2.110935447463    -1.491919480268     1.007825032230
         H           -3.826421427932    -0.683935447463    -1.068919480268     1.007825032230
         H           -3.262411427932    -1.783694447463     0.216751019732     1.007825032230

  Running in c1 symmetry.

  Rotational constants: A =      0.08142  B =      0.02201  C =      0.02040 [cm^-1]
  Rotational constants: A =   2440.87037  B =    659.83534  C =    611.50764 [MHz]
  Nuclear repulsion =  405.351419594639083

  Charge       = 0
  Multiplicity = 1
  Electrons    = 68
  Nalpha       = 34
  Nbeta        = 34

  ==> Algorithm <==

  SCF Algorithm Type is PK.
  DIIS enabled.
  MOM disabled.
  Fractional occupation disabled.
  Guess Type is SAD.
  Energy threshold   = 1.00e-06
  Density threshold  = 1.00e-10
  Integral threshold = 0.00e+00

  ==> Primary Basis <==

  Basis Set: CC-PVDZ
    Blend: CC-PVDZ
    Number of shells: 96
    Number of basis function: 196
    Number of Cartesian functions: 205
    Spherical Harmonics?: true
    Max angular momentum: 2

  ==> Pre-Iterations <==

   -------------------------------------------------------
    Irrep   Nso     Nmo     Nalpha   Nbeta   Ndocc  Nsocc
   -------------------------------------------------------
     A        196     196       0       0       0       0
   -------------------------------------------------------
    Total     196     196      34      34      34       0
   -------------------------------------------------------

  ==> Integral Setup <==

  Using integral reordering PK algorithm.
  Sizing the integral batches needed.
  Building batch lookup table.
   Calculation information:
      Number of atoms:                  23
      Number of AO shells:              96
      Number of primitives:            268
      Number of atomic orbitals:       205
      Number of basis functions:       196

      Integral cutoff                 1.00e-12
      Number of threads:                 1

	Batch   1 pq = [       0,    9405] index = [             0,44231715] size =     44231715
	Batch   2 pq = [    9405,   13301] index = [      44231715,88464951] size =     44233236
	Batch   3 pq = [   13301,   16290] index = [      88464951,132690195] size =     44225244
	Batch   4 pq = [   16290,   18810] index = [     132690195,176917455] size =     44227260
	Batch   5 pq = [   18810,   19306] index = [     176917455,186370471] size =      9453016
  Task number: 17
  Buffer size: 11059200
  Buffer per thread: 2
  We computed 9080407 shell quartets total.
  Whereas there are 10841496 unique shell quartets.

  ==> DiskJK: Disk-Based J/K Matrices <==

    J tasked:                  Yes
    K tasked:                  Yes
    wK tasked:                  No
    Memory [MiB]:              375
    Schwarz Cutoff:          1E-12

    OpenMP threads:              1

  Minimum eigenvalue in the overlap matrix is 3.1846512019E-04.
  Using Symmetric Orthogonalization.

  SCF Guess: Superposition of Atomic Densities via on-the-fly atomic UHF.

  ==> Iterations <==

                        Total Energy        Delta E     RMS |[F,P]|

   @RHF iter SAD:  -347.83895961821833   -3.47839e+02   0.00000e+00 
   @RHF iter   1:  -348.76584328587984   -9.26884e-01   2.88865e-03 DIIS
   @RHF iter   2:  -348.95808202792750   -1.92239e-01   1.19156e-03 DIIS
   @RHF iter   3:  -348.98785026501167   -2.97682e-02   2.57729e-04 DIIS
   @RHF iter   4:  -348.99030998432607   -2.45972e-03   5.35580e-05 DIIS
   @RHF iter   5:  -348.99038435151630   -7.43672e-05   1.86450e-05 DIIS
   @RHF iter   6:  -348.99039279414222   -8.44263e-06   4.90608e-06 DIIS
   @RHF iter   7:  -348.99039347554390   -6.81402e-07   1.20830e-06 DIIS
   @RHF iter   8:  -348.99039352244404   -4.69001e-08   2.81084e-07 DIIS
   @RHF iter   9:  -348.99039352685736   -4.41332e-09   1.07561e-07 DIIS
   @RHF iter  10:  -348.99039352762043   -7.63066e-10   4.79747e-08 DIIS
   @RHF iter  11:  -348.99039352788168   -2.61252e-10   1.85076e-08 DIIS
   @RHF iter  12:  -348.99039352792846   -4.67821e-11   8.86164e-09 DIIS
   @RHF iter  13:  -348.99039352793517   -6.70752e-12   3.62947e-09 DIIS
   @RHF iter  14:  -348.99039352793613   -9.66338e-13   9.76844e-10 DIIS
   @RHF iter  15:  -348.99039352793579    3.41061e-13   3.54698e-10 DIIS
   @RHF iter  16:  -348.99039352793596   -1.70530e-13   1.11598e-10 DIIS
   @RHF iter  17:  -348.99039352793505    9.09495e-13   4.72260e-11 DIIS
  Energy and wave function converged.


  ==> Post-Iterations <==

    Orbital Energies [Eh]
    ---------------------

    Doubly Occupied:                                                      

       1A    -11.241383     2A    -11.235812     3A    -11.235514  
       4A    -11.231717     5A    -11.231287     6A    -11.230451  
       7A    -11.229847     8A    -11.214097     9A    -11.208857  
      10A     -1.149899    11A     -1.042169    12A     -1.015191  
      13A     -1.009637    14A     -0.930178    15A     -0.830556  
      16A     -0.823217    17A     -0.794637    18A     -0.689537  
      19A     -0.630624    20A     -0.629032    21A     -0.598070  
      22A     -0.591075    23A     -0.581286    24A     -0.575717  
      25A     -0.561289    26A     -0.534262    27A     -0.498226  
      28A     -0.486572    29A     -0.483687    30A     -0.482596  
      31A     -0.478479    32A     -0.474352    33A     -0.330823  
      34A     -0.320505  

    Virtual:                                                              

      35A      0.136166    36A      0.139363    37A      0.177512  
      38A      0.193450    39A      0.203416    40A      0.215356  
      41A      0.234454    42A      0.243089    43A      0.257549  
      44A      0.262647    45A      0.269403    46A      0.279694  
      47A      0.281304    48A      0.287779    49A      0.305220  
      50A      0.315940    51A      0.366875    52A      0.376046  
      53A      0.397306    54A      0.453122    55A      0.465125  
      56A      0.479508    57A      0.490462    58A      0.558916  
      59A      0.580941    60A      0.600557    61A      0.605885  
      62A      0.618110    63A      0.639037    64A      0.658267  
      65A      0.678755    66A      0.685760    67A      0.696851  
      68A      0.709454    69A      0.728014    70A      0.739864  
      71A      0.746233    72A      0.755657    73A      0.757850  
      74A      0.776630    75A      0.780602    76A      0.811006  
      77A      0.832765    78A      0.857769    79A      0.863305  
      80A      0.870830    81A      0.877053    82A      0.890535  
      83A      0.896440    84A      0.897712    85A      0.898978  
      86A      0.915372    87A      0.920860    88A      0.924625  
      89A      0.935057    90A      0.941841    91A      0.943614  
      92A      0.967889    93A      0.985922    94A      1.002877  
      95A      1.033800    96A      1.050907    97A      1.110617  
      98A      1.124010    99A      1.137195   100A      1.147387  
     101A      1.152668   102A      1.164874   103A      1.186284  
     104A      1.226170   105A      1.238472   106A      1.252527  
     107A      1.259249   108A      1.282051   109A      1.295905  
     110A      1.308567   111A      1.325273   112A      1.330755  
     113A      1.413905   114A      1.478022   115A      1.490708  
     116A      1.512089   117A      1.516209   118A      1.545739  
     119A      1.591698   120A      1.594286   121A      1.673850  
     122A      1.682148   123A      1.698678   124A      1.702376  
     125A      1.739867   126A      1.751892   127A      1.761522  
     128A      1.789408   129A      1.810448   130A      1.853335  
     131A      1.865155   132A      1.883668   133A      1.886063  
     134A      1.895465   135A      1.906834   136A      1.915631  
     137A      1.924581   138A      1.933105   139A      1.941986  
     140A      1.944882   141A      1.953289   142A      1.957523  
     143A      1.968217   144A      1.970335   145A      1.978969  
     146A      1.989221   147A      2.002106   148A      2.030098  
     149A      2.053642   150A      2.058290   151A      2.070521  
     152A      2.102409   153A      2.110749   154A      2.128643  
     155A      2.149230   156A      2.153224   157A      2.163764  
     158A      2.171659   159A      2.174294   160A      2.253239  
     161A      2.275524   162A      2.295683   163A      2.298170  
     164A      2.301017   165A      2.316180   166A      2.329374  
     167A      2.347247   168A      2.450683   169A      2.464474  
     170A      2.474973   171A      2.484074   172A      2.487706  
     173A      2.545301   174A      2.571808   175A      2.579534  
     176A      2.615061   177A      2.737357   178A      2.749501  
     179A      2.765076   180A      2.771780   181A      2.780813  
     182A      2.797342   183A      2.809875   184A      2.843114  
     185A      2.855399   186A      2.861308   187A      2.870155  
     188A      2.954855   189A      2.972067   190A      2.980346  
     191A      3.003925   192A      3.024423   193A      3.149979  
     194A      3.191054   195A      3.293408   196A      3.954056  

    Final Occupation by Irrep:
              A 
    DOCC [    34 ]

  @RHF Final Energy:  -348.99039352793505

   => Energetics <=

    Nuclear Repulsion Energy =            405.3514195946390828
    One-Electron Energy =               -1273.4824646758106610
    Two-Electron Energy =                 519.1406515532364665
    Total Energy =                       -348.9903935279351117

Computation Completed


Properties will be evaluated at   0.000000,   0.000000,   0.000000 [a0]

Properties computed using the SCF density matrix

  Nuclear Dipole Moment: [e a0]
     X:     6.4160      Y:    -2.3729      Z:     7.4595

  Electronic Dipole Moment: [e a0]
     X:    -6.5737      Y:     2.3197      Z:    -7.5010

  Dipole Moment: [e a0]
     X:    -0.1577      Y:    -0.0532      Z:    -0.0415     Total:     0.1715

  Dipole Moment: [D]
     X:    -0.4008      Y:    -0.1351      Z:    -0.1056     Total:     0.4359


*** tstop() called on ds3 at Tue Apr 28 00:26:32 2020
Module time:
	user time   =      62.92 seconds =       1.05 minutes
	system time =      26.42 seconds =       0.44 minutes
	total time  =        138 seconds =       2.30 minutes
Total time:
	user time   =      62.92 seconds =       1.05 minutes
	system time =      26.42 seconds =       0.44 minutes
	total time  =        138 seconds =       2.30 minutes
                                     G D M A

                                 by Anthony Stone

                           version 2.2.06, 22 June 2011

               Distributed Multipoles from Gaussian wavefunctions


Starting at 0:26:32 on 28 Apr 2020  


Using SCF density matrix from file ./SSI/SSI-056ALA-175PHE-1-dimer.test.5243.fchk


                         Distributed Multipole Analysis

Standard DMA

Positions and radii in angstrom
Multipole moments in atomic units, ea_0^k for rank k

C          x =  2.690579  y = -0.040935  z =  1.706081 angstrom
           Maximum rank =  0   Radius =  0.650 angstrom
                   Q00  =  -0.224611

C          x =  3.254579  y = -0.295935  z =  3.096081 angstrom
           Maximum rank =  0   Radius =  0.650 angstrom
                   Q00  =  -0.213579

H          x =  3.290579  y = -0.560935  z =  0.957081 angstrom
           Maximum rank =  0   Radius =  0.325 angstrom
                   Q00  =   0.069145

H          x =  1.658579  y = -0.381935  z =  1.630081 angstrom
           Maximum rank =  0   Radius =  0.325 angstrom
                   Q00  =   0.089792

H          x =  2.708579  y =  1.028065  z =  1.493081 angstrom
           Maximum rank =  0   Radius =  0.325 angstrom
                   Q00  =   0.073816

H          x =  2.594579  y =  0.185065  z =  3.815081 angstrom
           Maximum rank =  0   Radius =  0.325 angstrom
                   Q00  =   0.076252

H          x =  4.257359  y =  0.151597  z =  3.160556 angstrom
           Maximum rank =  0   Radius =  0.325 angstrom
                   Q00  =   0.065072

H          x =  3.214649  y = -1.371777  z =  3.321848 angstrom
           Maximum rank =  0   Radius =  0.325 angstrom
                   Q00  =   0.064822

C          x = -3.001421  y = -1.321935  z = -0.746919 angstrom
           Maximum rank =  0   Radius =  0.650 angstrom
                   Q00  =  -0.205025

C          x =  0.563579  y =  1.112065  z = -0.843919 angstrom
           Maximum rank =  0   Radius =  0.650 angstrom
                   Q00  =  -0.088264

C          x =  0.642579  y = -0.260935  z = -1.100919 angstrom
           Maximum rank =  0   Radius =  0.650 angstrom
                   Q00  =  -0.061036

C          x = -0.668421  y =  1.682065  z = -0.527919 angstrom
           Maximum rank =  0   Radius =  0.650 angstrom
                   Q00  =  -0.069447

C          x = -0.505421  y = -1.055935  z = -1.044919 angstrom
           Maximum rank =  0   Radius =  0.650 angstrom
                   Q00  =  -0.089062

C          x = -1.809421  y =  0.882065  z = -0.470919 angstrom
           Maximum rank =  0   Radius =  0.650 angstrom
                   Q00  =   0.007152

C          x = -1.741421  y = -0.487935  z = -0.734919 angstrom
           Maximum rank =  0   Radius =  0.650 angstrom
                   Q00  =  -0.106523

H          x =  1.451579  y =  1.729065  z = -0.894919 angstrom
           Maximum rank =  0   Radius =  0.325 angstrom
                   Q00  =   0.063970

H          x =  1.597579  y = -0.696935  z = -1.346919 angstrom
           Maximum rank =  0   Radius =  0.325 angstrom
                   Q00  =   0.066392

H          x = -0.750421  y =  2.746065  z = -0.359919 angstrom
           Maximum rank =  0   Radius =  0.325 angstrom
                   Q00  =   0.065440

H          x = -0.435421  y = -2.112935  z = -1.255919 angstrom
           Maximum rank =  0   Radius =  0.325 angstrom
                   Q00  =   0.057963

H          x = -2.759421  y =  1.332065  z = -0.218919 angstrom
           Maximum rank =  0   Radius =  0.325 angstrom
                   Q00  =   0.056918

H          x = -2.895421  y = -2.110935  z = -1.491919 angstrom
           Maximum rank =  0   Radius =  0.325 angstrom
                   Q00  =   0.098221

H          x = -3.826421  y = -0.683935  z = -1.068919 angstrom
           Maximum rank =  0   Radius =  0.325 angstrom
                   Q00  =   0.097477

H          x = -3.262411  y = -1.783694  z =  0.216751 angstrom
           Maximum rank =  0   Radius =  0.325 angstrom
                   Q00  =   0.105118

Total multipoles referred to origin at
           x =   0.000000,  y =    0.000000,  z =    0.000000 angstrom
                   Q00  =  -0.000000

Finished at 0:26:32 on 28 Apr 2020  

  DMA results are available in the Python driver through the
	  variable('DMA DISTRIBUTED MULTIPOLES')
  and
	  variable('DMA TOTAL MULTIPOLES')
  commands.


    Psi4 stopped on: Tuesday, 28 April 2020 12:26AM
    Psi4 wall time for execution: 0:02:18.14

*** Psi4 exiting successfully. Buy a developer a beer!
