
    -----------------------------------------------------------------------
          Psi4: An Open-Source Ab Initio Electronic Structure Package
                               Psi4 1.3.2 release

                         Git: Rev {HEAD} ecbda83 


    R. M. Parrish, L. A. Burns, D. G. A. Smith, A. C. Simmonett,
    A. E. DePrince III, E. G. Hohenstein, U. Bozkaya, A. Yu. Sokolov,
    R. Di Remigio, R. M. Richard, J. F. Gonthier, A. M. James,
    H. R. McAlexander, A. Kumar, M. Saitow, X. Wang, B. P. Pritchard,
    P. Verma, H. F. Schaefer III, K. Patkowski, R. A. King, E. F. Valeev,
    F. A. Evangelista, J. M. Turney, T. D. Crawford, and C. D. Sherrill,
    J. Chem. Theory Comput. 13(7) pp 3185--3197 (2017).
    (doi: 10.1021/acs.jctc.7b00174)


                         Additional Contributions by
    P. Kraus, H. Kruse, M. H. Lechner, M. C. Schieber, R. A. Shaw,
    A. Alenaizan, R. Galvelis, Z. L. Glick, S. Lehtola, and J. P. Misiewicz

    -----------------------------------------------------------------------


    Psi4 started on: Monday, 27 April 2020 08:24AM

    Process ID: 876
    Host:       ds3
    PSIDATADIR: /theoryfs2/ds/metcalf/miniconda2/envs/tf2gpu/share/psi4
    Memory:     500.0 MiB
    Threads:    1
    
  ==> Input File <==

--------------------------------------------------------------------------
import numpy as np
set {scf_type pk
basis cc-pvdz
d_convergence 10
gdma_switch   0
gdma_limit    0
gdma_origin   [ 0.0,  0.0,  0.0 ]
}
molecule test {
    units Angstrom
    0 1
    --
    0 1
    C               -0.334096062706171     0.865801991415956     2.063960945711716
    C                0.141903937293829     2.264801991415957     2.446960945711716
    C               -0.448096062706171     0.700801991415957     0.569960945711717
    C                0.683903937293829     0.422801991415957    -0.194039054288283
    C               -1.674096062706171     0.850801991415957    -0.073039054288283
    C                0.592903937293829     0.279801991415957    -1.574039054288284
    C               -1.774096062706171     0.706801991415957    -1.454039054288284
    C               -0.638096062706171     0.421801991415957    -2.203039054288284
    O               -0.726096062706171     0.284801991415957    -3.553039054288284
    H                0.397903937293829     0.147801991415957     2.430960945711716
    H               -1.285096062706171     0.634801991415957     2.546960945711716
    H                0.977903937293829     2.487801991415957     1.790960945711717
    H                1.643903937293829     0.318801991415957     0.294960945711716
    H               -2.556096062706172     1.087801991415957     0.505960945711716
    H                1.480903937293829     0.070801991415957    -2.146039054288284
    H               -2.720096062706171     0.827801991415957    -1.958039054288284
    H                0.131903937293829     0.106801991415957    -3.937039054288284
    H                0.471143937293829     2.302561991415957     3.495852845711716
    H               -0.635056062706171     3.022261991415956     2.266440945711717
    C                1.643903937293829    -2.390198008584043     1.778960945711717
    C                2.029903937293829    -3.853198008584043     1.986960945711717
    H                2.513903937293829    -1.743198008584043     1.884960945711716
    H                1.245903937293829    -2.268198008584043     0.770960945711717
    H                0.857903937293829    -2.091198008584043     2.470960945711716
    H                1.123903937293829    -4.451198008584043     1.963960945711716
    H                2.520543937293829    -3.991122008584043     2.961769945711716
    H                2.686593937293829    -4.197421008584043     1.174393945711717

}
e, wfn = energy('scf', return_wfn=True)
gdma(wfn)
dmavals = variable('DMA DISTRIBUTED MULTIPOLES')
charges = np.array(dmavals)
print(charges)
np.save('SSI-171TYR-231VAL-1-dimer.npy', np.array(charges))--------------------------------------------------------------------------

*** tstart() called on ds3
*** at Mon Apr 27 08:24:27 2020

   => Loading Basis Set <=

    Name: CC-PVDZ
    Role: ORBITAL
    Keyword: BASIS
    atoms 1-8, 20-21   entry C          line   138 file /theoryfs2/ds/metcalf/miniconda2/envs/tf2gpu/share/psi4/basis/cc-pvdz.gbs 
    atoms 9            entry O          line   198 file /theoryfs2/ds/metcalf/miniconda2/envs/tf2gpu/share/psi4/basis/cc-pvdz.gbs 
    atoms 10-19, 22-27 entry H          line    22 file /theoryfs2/ds/metcalf/miniconda2/envs/tf2gpu/share/psi4/basis/cc-pvdz.gbs 


         ---------------------------------------------------------
                                   SCF
               by Justin Turney, Rob Parrish, Andy Simmonett
                          and Daniel G. A. Smith
                              RHF Reference
                        1 Threads,    500 MiB Core
         ---------------------------------------------------------

  ==> Geometry <==

    Molecular point group: c1
    Full point group: C1

    Geometry (in Angstrom), charge = 0, multiplicity = 1:

       Center              X                  Y                   Z               Mass       
    ------------   -----------------  -----------------  -----------------  -----------------
         C           -0.334096062706     0.865801991416     2.063960945712    12.000000000000
         C            0.141903937294     2.264801991416     2.446960945712    12.000000000000
         C           -0.448096062706     0.700801991416     0.569960945712    12.000000000000
         C            0.683903937294     0.422801991416    -0.194039054288    12.000000000000
         C           -1.674096062706     0.850801991416    -0.073039054288    12.000000000000
         C            0.592903937294     0.279801991416    -1.574039054288    12.000000000000
         C           -1.774096062706     0.706801991416    -1.454039054288    12.000000000000
         C           -0.638096062706     0.421801991416    -2.203039054288    12.000000000000
         O           -0.726096062706     0.284801991416    -3.553039054288    15.994914619570
         H            0.397903937294     0.147801991416     2.430960945712     1.007825032230
         H           -1.285096062706     0.634801991416     2.546960945712     1.007825032230
         H            0.977903937294     2.487801991416     1.790960945712     1.007825032230
         H            1.643903937294     0.318801991416     0.294960945712     1.007825032230
         H           -2.556096062706     1.087801991416     0.505960945712     1.007825032230
         H            1.480903937294     0.070801991416    -2.146039054288     1.007825032230
         H           -2.720096062706     0.827801991416    -1.958039054288     1.007825032230
         H            0.131903937294     0.106801991416    -3.937039054288     1.007825032230
         H            0.471143937294     2.302561991416     3.495852845712     1.007825032230
         H           -0.635056062706     3.022261991416     2.266440945712     1.007825032230
         C            1.643903937294    -2.390198008584     1.778960945712    12.000000000000
         C            2.029903937294    -3.853198008584     1.986960945712    12.000000000000
         H            2.513903937294    -1.743198008584     1.884960945712     1.007825032230
         H            1.245903937294    -2.268198008584     0.770960945712     1.007825032230
         H            0.857903937294    -2.091198008584     2.470960945712     1.007825032230
         H            1.123903937294    -4.451198008584     1.963960945712     1.007825032230
         H            2.520543937294    -3.991122008584     2.961769945712     1.007825032230
         H            2.686593937294    -4.197421008584     1.174393945712     1.007825032230

  Running in c1 symmetry.

  Rotational constants: A =      0.03483  B =      0.01961  C =      0.01408 [cm^-1]
  Rotational constants: A =   1044.22330  B =    587.80399  C =    422.04078 [MHz]
  Nuclear repulsion =  582.214961688892686

  Charge       = 0
  Multiplicity = 1
  Electrons    = 84
  Nalpha       = 42
  Nbeta        = 42

  ==> Algorithm <==

  SCF Algorithm Type is PK.
  DIIS enabled.
  MOM disabled.
  Fractional occupation disabled.
  Guess Type is SAD.
  Energy threshold   = 1.00e-06
  Density threshold  = 1.00e-10
  Integral threshold = 0.00e+00

  ==> Primary Basis <==

  Basis Set: CC-PVDZ
    Blend: CC-PVDZ
    Number of shells: 114
    Number of basis function: 234
    Number of Cartesian functions: 245
    Spherical Harmonics?: true
    Max angular momentum: 2

  ==> Pre-Iterations <==

   -------------------------------------------------------
    Irrep   Nso     Nmo     Nalpha   Nbeta   Ndocc  Nsocc
   -------------------------------------------------------
     A        234     234       0       0       0       0
   -------------------------------------------------------
    Total     234     234      42      42      42       0
   -------------------------------------------------------

  ==> Integral Setup <==

  Using integral reordering PK algorithm.
  Sizing the integral batches needed.
  Building batch lookup table.
   Calculation information:
      Number of atoms:                  27
      Number of AO shells:             114
      Number of primitives:            322
      Number of atomic orbitals:       245
      Number of basis functions:       234

      Integral cutoff                 1.00e-12
      Number of threads:                 1

	Batch   1 pq = [       0,    9405] index = [             0,44231715] size =     44231715
	Batch   2 pq = [    9405,   13301] index = [      44231715,88464951] size =     44233236
	Batch   3 pq = [   13301,   16290] index = [      88464951,132690195] size =     44225244
	Batch   4 pq = [   16290,   18810] index = [     132690195,176917455] size =     44227260
	Batch   5 pq = [   18810,   21030] index = [     176917455,221140965] size =     44223510
	Batch   6 pq = [   21030,   23037] index = [     221140965,265363203] size =     44222238
	Batch   7 pq = [   23037,   24883] index = [     265363203,309594286] size =     44231083
	Batch   8 pq = [   24883,   26601] index = [     309594286,353819901] size =     44225615
	Batch   9 pq = [   26601,   27495] index = [     353819901,378001260] size =     24181359
  Task number: 35
  Buffer size: 11059200
  Buffer per thread: 2
  We computed 19457313 shell quartets total.
  Whereas there are 21487290 unique shell quartets.

  ==> DiskJK: Disk-Based J/K Matrices <==

    J tasked:                  Yes
    K tasked:                  Yes
    wK tasked:                  No
    Memory [MiB]:              375
    Schwarz Cutoff:          1E-12

    OpenMP threads:              1

  Minimum eigenvalue in the overlap matrix is 3.1610457992E-04.
  Using Symmetric Orthogonalization.

  SCF Guess: Superposition of Atomic Densities via on-the-fly atomic UHF.

  ==> Iterations <==

                        Total Energy        Delta E     RMS |[F,P]|

   @RHF iter SAD:  -461.75962517514103   -4.61760e+02   0.00000e+00 
   @RHF iter   1:  -462.60830070945775   -8.48676e-01   2.81190e-03 DIIS
   @RHF iter   2:  -462.84841565049732   -2.40115e-01   1.19465e-03 DIIS
   @RHF iter   3:  -462.88799786621541   -3.95822e-02   2.75995e-04 DIIS
   @RHF iter   4:  -462.89129221132924   -3.29435e-03   1.18248e-04 DIIS
   @RHF iter   5:  -462.89173875779153   -4.46546e-04   1.92493e-05 DIIS
   @RHF iter   6:  -462.89175832620771   -1.95684e-05   5.39636e-06 DIIS
   @RHF iter   7:  -462.89175978118982   -1.45498e-06   1.92625e-06 DIIS
   @RHF iter   8:  -462.89175997886952   -1.97680e-07   6.82191e-07 DIIS
   @RHF iter   9:  -462.89176000871794   -2.98484e-08   2.22096e-07 DIIS
   @RHF iter  10:  -462.89176001254020   -3.82227e-09   8.88539e-08 DIIS
   @RHF iter  11:  -462.89176001345794   -9.17737e-10   4.26460e-08 DIIS
   @RHF iter  12:  -462.89176001369560   -2.37662e-10   2.28077e-08 DIIS
   @RHF iter  13:  -462.89176001376939   -7.37828e-11   7.68157e-09 DIIS
   @RHF iter  14:  -462.89176001377547   -6.08225e-12   1.76813e-09 DIIS
   @RHF iter  15:  -462.89176001377717   -1.70530e-12   5.85267e-10 DIIS
   @RHF iter  16:  -462.89176001377712    5.68434e-14   1.83498e-10 DIIS
   @RHF iter  17:  -462.89176001377672    3.97904e-13   6.58500e-11 DIIS
  Energy and wave function converged.


  ==> Post-Iterations <==

    Orbital Energies [Eh]
    ---------------------

    Doubly Occupied:                                                      

       1A    -20.582576     2A    -11.298336     3A    -11.238043  
       4A    -11.237359     5A    -11.232072     6A    -11.228740  
       7A    -11.228647     8A    -11.225601     9A    -11.219904  
      10A    -11.218505    11A    -11.215623    12A     -1.402787  
      13A     -1.152826    14A     -1.058832    15A     -1.019297  
      16A     -1.017450    17A     -0.975425    18A     -0.859606  
      19A     -0.844676    20A     -0.837116    21A     -0.791721  
      22A     -0.732874    23A     -0.672722    24A     -0.646640  
      25A     -0.613238    26A     -0.599343    27A     -0.596601  
      28A     -0.595429    29A     -0.587009    30A     -0.584575  
      31A     -0.570345    32A     -0.547354    33A     -0.519012  
      34A     -0.501187    35A     -0.496360    36A     -0.486305  
      37A     -0.484787    38A     -0.478377    39A     -0.470821  
      40A     -0.462494    41A     -0.338401    42A     -0.300723  

    Virtual:                                                              

      43A      0.131038    44A      0.154302    45A      0.177281  
      46A      0.183085    47A      0.192816    48A      0.211364  
      49A      0.217268    50A      0.229471    51A      0.246663  
      52A      0.248400    53A      0.264178    54A      0.266669  
      55A      0.281333    56A      0.283802    57A      0.287884  
      58A      0.296252    59A      0.319552    60A      0.329126  
      61A      0.356469    62A      0.382856    63A      0.402209  
      64A      0.418894    65A      0.429897    66A      0.474200  
      67A      0.485623    68A      0.500627    69A      0.521383  
      70A      0.584627    71A      0.593648    72A      0.598068  
      73A      0.602192    74A      0.618979    75A      0.642355  
      76A      0.651953    77A      0.672893    78A      0.676163  
      79A      0.692412    80A      0.699885    81A      0.714780  
      82A      0.723508    83A      0.728802    84A      0.740683  
      85A      0.748882    86A      0.761515    87A      0.769694  
      88A      0.796715    89A      0.812700    90A      0.833824  
      91A      0.848233    92A      0.853359    93A      0.862157  
      94A      0.874337    95A      0.882198    96A      0.889912  
      97A      0.892472    98A      0.896569    99A      0.897980  
     100A      0.904366   101A      0.915490   102A      0.919181  
     103A      0.928915   104A      0.931515   105A      0.944198  
     106A      0.957881   107A      0.963312   108A      0.981834  
     109A      0.988514   110A      0.996654   111A      1.019661  
     112A      1.042658   113A      1.049175   114A      1.084730  
     115A      1.121363   116A      1.130774   117A      1.145178  
     118A      1.149818   119A      1.156381   120A      1.171646  
     121A      1.201360   122A      1.220782   123A      1.230659  
     124A      1.250360   125A      1.269568   126A      1.286303  
     127A      1.302011   128A      1.309472   129A      1.313295  
     130A      1.346966   131A      1.361067   132A      1.377293  
     133A      1.422766   134A      1.425120   135A      1.478702  
     136A      1.482115   137A      1.492248   138A      1.509062  
     139A      1.557755   140A      1.594616   141A      1.611239  
     142A      1.622168   143A      1.643387   144A      1.678846  
     145A      1.683033   146A      1.693351   147A      1.699114  
     148A      1.739967   149A      1.742718   150A      1.775486  
     151A      1.800216   152A      1.845712   153A      1.848539  
     154A      1.867874   155A      1.871570   156A      1.878087  
     157A      1.889058   158A      1.895184   159A      1.899747  
     160A      1.903978   161A      1.914038   162A      1.926780  
     163A      1.928773   164A      1.941810   165A      1.944938  
     166A      1.952097   167A      1.956178   168A      1.968502  
     169A      1.973788   170A      1.977496   171A      1.986811  
     172A      2.000488   173A      2.002568   174A      2.026198  
     175A      2.052625   176A      2.063636   177A      2.068696  
     178A      2.081682   179A      2.088302   180A      2.100729  
     181A      2.107845   182A      2.118546   183A      2.136148  
     184A      2.154013   185A      2.173984   186A      2.199749  
     187A      2.237087   188A      2.258005   189A      2.274820  
     190A      2.303432   191A      2.309793   192A      2.323564  
     193A      2.347073   194A      2.363888   195A      2.369531  
     196A      2.450586   197A      2.457029   198A      2.462957  
     199A      2.474996   200A      2.476518   201A      2.490648  
     202A      2.499893   203A      2.530648   204A      2.547993  
     205A      2.567723   206A      2.574161   207A      2.588022  
     208A      2.630478   209A      2.653715   210A      2.758797  
     211A      2.766531   212A      2.778617   213A      2.792038  
     214A      2.803961   215A      2.817610   216A      2.856861  
     217A      2.863014   218A      2.868916   219A      2.883583  
     220A      2.907272   221A      2.958563   222A      2.960955  
     223A      2.972652   224A      2.992790   225A      3.027222  
     226A      3.099006   227A      3.173755   228A      3.258784  
     229A      3.294405   230A      3.349013   231A      3.583035  
     232A      3.685386   233A      3.981009   234A      4.201042  

    Final Occupation by Irrep:
              A 
    DOCC [    42 ]

  @RHF Final Energy:  -462.89176001377672

   => Energetics <=

    Nuclear Repulsion Energy =            582.2149616888926857
    One-Electron Energy =               -1781.8739631545518023
    Two-Electron Energy =                 736.7672414518822279
    Total Energy =                       -462.8917600137767749

Computation Completed


Properties will be evaluated at   0.000000,   0.000000,   0.000000 [a0]

Properties computed using the SCF density matrix

  Nuclear Dipole Moment: [e a0]
     X:     8.2988      Y:    -7.2500      Z:    15.4680

  Electronic Dipole Moment: [e a0]
     X:    -7.7734      Y:     7.1840      Z:   -15.3391

  Dipole Moment: [e a0]
     X:     0.5254      Y:    -0.0661      Z:     0.1289     Total:     0.5450

  Dipole Moment: [D]
     X:     1.3355      Y:    -0.1680      Z:     0.3276     Total:     1.3853


*** tstop() called on ds3 at Mon Apr 27 08:38:12 2020
Module time:
	user time   =     138.48 seconds =       2.31 minutes
	system time =      52.35 seconds =       0.87 minutes
	total time  =        825 seconds =      13.75 minutes
Total time:
	user time   =     138.48 seconds =       2.31 minutes
	system time =      52.35 seconds =       0.87 minutes
	total time  =        825 seconds =      13.75 minutes
                                     G D M A

                                 by Anthony Stone

                           version 2.2.06, 22 June 2011

               Distributed Multipoles from Gaussian wavefunctions


Starting at 8:38:12 on 27 Apr 2020  


Using SCF density matrix from file ./SSI/SSI-171TYR-231VAL-1-dimer.test.876.fchk


                         Distributed Multipole Analysis

Standard DMA

Positions and radii in angstrom
Multipole moments in atomic units, ea_0^k for rank k

C          x = -0.334096  y =  0.865802  z =  2.063961 angstrom
           Maximum rank =  0   Radius =  0.650 angstrom
                   Q00  =  -0.026431

C          x =  0.141904  y =  2.264802  z =  2.446961 angstrom
           Maximum rank =  0   Radius =  0.650 angstrom
                   Q00  =  -0.234647

C          x = -0.448096  y =  0.700802  z =  0.569961 angstrom
           Maximum rank =  0   Radius =  0.650 angstrom
                   Q00  =  -0.143951

C          x =  0.683904  y =  0.422802  z = -0.194039 angstrom
           Maximum rank =  0   Radius =  0.650 angstrom
                   Q00  =   0.024396

C          x = -1.674096  y =  0.850802  z = -0.073039 angstrom
           Maximum rank =  0   Radius =  0.650 angstrom
                   Q00  =  -0.007288

C          x =  0.592904  y =  0.279802  z = -1.574039 angstrom
           Maximum rank =  0   Radius =  0.650 angstrom
                   Q00  =  -0.192293

C          x = -1.774096  y =  0.706802  z = -1.454039 angstrom
           Maximum rank =  0   Radius =  0.650 angstrom
                   Q00  =  -0.124735

C          x = -0.638096  y =  0.421802  z = -2.203039 angstrom
           Maximum rank =  0   Radius =  0.650 angstrom
                   Q00  =   0.318736

O          x = -0.726096  y =  0.284802  z = -3.553039 angstrom
           Maximum rank =  0   Radius =  0.650 angstrom
                   Q00  =  -0.671514

H          x =  0.397904  y =  0.147802  z =  2.430961 angstrom
           Maximum rank =  0   Radius =  0.325 angstrom
                   Q00  =   0.064923

H          x = -1.285096  y =  0.634802  z =  2.546961 angstrom
           Maximum rank =  0   Radius =  0.325 angstrom
                   Q00  =   0.065017

H          x =  0.977904  y =  2.487802  z =  1.790961 angstrom
           Maximum rank =  0   Radius =  0.325 angstrom
                   Q00  =   0.078826

H          x =  1.643904  y =  0.318802  z =  0.294961 angstrom
           Maximum rank =  0   Radius =  0.325 angstrom
                   Q00  =   0.069294

H          x = -2.556096  y =  1.087802  z =  0.505961 angstrom
           Maximum rank =  0   Radius =  0.325 angstrom
                   Q00  =   0.062046

H          x =  1.480904  y =  0.070802  z = -2.146039 angstrom
           Maximum rank =  0   Radius =  0.325 angstrom
                   Q00  =   0.070785

H          x = -2.720096  y =  0.827802  z = -1.958039 angstrom
           Maximum rank =  0   Radius =  0.325 angstrom
                   Q00  =   0.080072

H          x =  0.131904  y =  0.106802  z = -3.937039 angstrom
           Maximum rank =  0   Radius =  0.325 angstrom
                   Q00  =   0.403089

H          x =  0.471144  y =  2.302562  z =  3.495853 angstrom
           Maximum rank =  0   Radius =  0.325 angstrom
                   Q00  =   0.080266

H          x = -0.635056  y =  3.022262  z =  2.266441 angstrom
           Maximum rank =  0   Radius =  0.325 angstrom
                   Q00  =   0.081521

C          x =  1.643904  y = -2.390198  z =  1.778961 angstrom
           Maximum rank =  0   Radius =  0.650 angstrom
                   Q00  =  -0.250734

C          x =  2.029904  y = -3.853198  z =  1.986961 angstrom
           Maximum rank =  0   Radius =  0.650 angstrom
                   Q00  =  -0.226530

H          x =  2.513904  y = -1.743198  z =  1.884961 angstrom
           Maximum rank =  0   Radius =  0.325 angstrom
                   Q00  =   0.072101

H          x =  1.245904  y = -2.268198  z =  0.770961 angstrom
           Maximum rank =  0   Radius =  0.325 angstrom
                   Q00  =   0.088220

H          x =  0.857904  y = -2.091198  z =  2.470961 angstrom
           Maximum rank =  0   Radius =  0.325 angstrom
                   Q00  =   0.080832

H          x =  1.123904  y = -4.451198  z =  1.963961 angstrom
           Maximum rank =  0   Radius =  0.325 angstrom
                   Q00  =   0.081733

H          x =  2.520544  y = -3.991122  z =  2.961770 angstrom
           Maximum rank =  0   Radius =  0.325 angstrom
                   Q00  =   0.077599

H          x =  2.686594  y = -4.197421  z =  1.174394 angstrom
           Maximum rank =  0   Radius =  0.325 angstrom
                   Q00  =   0.078668

Total multipoles referred to origin at
           x =   0.000000,  y =    0.000000,  z =    0.000000 angstrom
                   Q00  =  -0.000000

Finished at 8:38:12 on 27 Apr 2020  

  DMA results are available in the Python driver through the
	  variable('DMA DISTRIBUTED MULTIPOLES')
  and
	  variable('DMA TOTAL MULTIPOLES')
  commands.


    Psi4 stopped on: Monday, 27 April 2020 08:38AM
    Psi4 wall time for execution: 0:13:45.01

*** Psi4 exiting successfully. Buy a developer a beer!
