
    -----------------------------------------------------------------------
          Psi4: An Open-Source Ab Initio Electronic Structure Package
                               Psi4 1.3.2 release

                         Git: Rev {HEAD} ecbda83 


    R. M. Parrish, L. A. Burns, D. G. A. Smith, A. C. Simmonett,
    A. E. DePrince III, E. G. Hohenstein, U. Bozkaya, A. Yu. Sokolov,
    R. Di Remigio, R. M. Richard, J. F. Gonthier, A. M. James,
    H. R. McAlexander, A. Kumar, M. Saitow, X. Wang, B. P. Pritchard,
    P. Verma, H. F. Schaefer III, K. Patkowski, R. A. King, E. F. Valeev,
    F. A. Evangelista, J. M. Turney, T. D. Crawford, and C. D. Sherrill,
    J. Chem. Theory Comput. 13(7) pp 3185--3197 (2017).
    (doi: 10.1021/acs.jctc.7b00174)


                         Additional Contributions by
    P. Kraus, H. Kruse, M. H. Lechner, M. C. Schieber, R. A. Shaw,
    A. Alenaizan, R. Galvelis, Z. L. Glick, S. Lehtola, and J. P. Misiewicz

    -----------------------------------------------------------------------


    Psi4 started on: Tuesday, 28 April 2020 08:14PM

    Process ID: 30044
    Host:       ds3
    PSIDATADIR: /theoryfs2/ds/metcalf/miniconda2/envs/tf2gpu/share/psi4
    Memory:     500.0 MiB
    Threads:    1
    
  ==> Input File <==

--------------------------------------------------------------------------
import numpy as np
set {scf_type pk
basis cc-pvdz
d_convergence 10
gdma_switch   0
gdma_limit    0
gdma_origin   [ 0.0,  0.0,  0.0 ]
}
molecule test {
    units Angstrom
    0 1
    --
    0 1
    C               -3.379943323899062     1.251162625548726    -0.313736263141520
    C               -4.469943323899062     1.994162625548726     0.397263736858480
    H               -3.541943323899062     1.285162625548727    -1.390736263141520
    H               -2.419943323899062     1.697162625548726    -0.079736263141520
    H               -3.332943323899062     0.213162625548726     0.003263736858480
    H               -4.763943323899062     2.858162625548726    -0.199736263141520
    H               -4.067943323899062     2.376162625548726     1.337263736858480
    H               -5.343823323899063     1.368622625548726     0.631843736858480
    C                3.709056676100937     0.774162625548726    -0.601736263141520
    C               -0.015943323899062    -0.044837374451274    -0.701736263141520
    C               -0.145943323899062    -1.032837374451274     0.247263736858480
    C                1.233056676100937     0.546162625548726    -0.940736263141520
    C                2.379056676100938     0.138162625548726    -0.274736263141520
    C                1.004056676100938    -1.448837374451273     0.954263736858480
    C                2.262056676100938    -0.869837374451274     0.674263736858480
    O               -1.405943323899063    -1.533837374451274     0.451263736858480
    H               -0.883943323899062     0.278162625548726    -1.256736263141520
    H                1.306056676100937     1.328162625548726    -1.685736263141520
    H                0.928056676100938    -2.221837374451274     1.703263736858480
    H               -1.472943323899062    -2.048837374451273     1.262263736858480
    H                4.417056676100938     0.631162625548726     0.216263736858480
    H                3.547056676100938     1.848162625548726    -0.714736263141520
    H                3.140056676100938    -1.210837374451273     1.207263736858480
    H                4.136326676100937     0.372792625548726    -1.532516263141520

}
e, wfn = energy('scf', return_wfn=True)
gdma(wfn)
dmavals = variable('DMA DISTRIBUTED MULTIPOLES')
charges = np.array(dmavals)
print(charges)
np.save('SSI-005ILE-234TYR-1-dimer.npy', np.array(charges))--------------------------------------------------------------------------

*** tstart() called on ds3
*** at Tue Apr 28 20:14:46 2020

   => Loading Basis Set <=

    Name: CC-PVDZ
    Role: ORBITAL
    Keyword: BASIS
    atoms 1-2, 9-15  entry C          line   138 file /theoryfs2/ds/metcalf/miniconda2/envs/tf2gpu/share/psi4/basis/cc-pvdz.gbs 
    atoms 3-8, 17-24 entry H          line    22 file /theoryfs2/ds/metcalf/miniconda2/envs/tf2gpu/share/psi4/basis/cc-pvdz.gbs 
    atoms 16         entry O          line   198 file /theoryfs2/ds/metcalf/miniconda2/envs/tf2gpu/share/psi4/basis/cc-pvdz.gbs 


         ---------------------------------------------------------
                                   SCF
               by Justin Turney, Rob Parrish, Andy Simmonett
                          and Daniel G. A. Smith
                              RHF Reference
                        1 Threads,    500 MiB Core
         ---------------------------------------------------------

  ==> Geometry <==

    Molecular point group: c1
    Full point group: C1

    Geometry (in Angstrom), charge = 0, multiplicity = 1:

       Center              X                  Y                   Z               Mass       
    ------------   -----------------  -----------------  -----------------  -----------------
         C           -3.379943323899     1.251162625549    -0.313736263142    12.000000000000
         C           -4.469943323899     1.994162625549     0.397263736858    12.000000000000
         H           -3.541943323899     1.285162625549    -1.390736263142     1.007825032230
         H           -2.419943323899     1.697162625549    -0.079736263142     1.007825032230
         H           -3.332943323899     0.213162625549     0.003263736858     1.007825032230
         H           -4.763943323899     2.858162625549    -0.199736263142     1.007825032230
         H           -4.067943323899     2.376162625549     1.337263736858     1.007825032230
         H           -5.343823323899     1.368622625549     0.631843736858     1.007825032230
         C            3.709056676101     0.774162625549    -0.601736263142    12.000000000000
         C           -0.015943323899    -0.044837374451    -0.701736263142    12.000000000000
         C           -0.145943323899    -1.032837374451     0.247263736858    12.000000000000
         C            1.233056676101     0.546162625549    -0.940736263142    12.000000000000
         C            2.379056676101     0.138162625549    -0.274736263142    12.000000000000
         C            1.004056676101    -1.448837374451     0.954263736858    12.000000000000
         C            2.262056676101    -0.869837374451     0.674263736858    12.000000000000
         O           -1.405943323899    -1.533837374451     0.451263736858    15.994914619570
         H           -0.883943323899     0.278162625549    -1.256736263142     1.007825032230
         H            1.306056676101     1.328162625549    -1.685736263142     1.007825032230
         H            0.928056676101    -2.221837374451     1.703263736858     1.007825032230
         H           -1.472943323899    -2.048837374451     1.262263736858     1.007825032230
         H            4.417056676101     0.631162625549     0.216263736858     1.007825032230
         H            3.547056676101     1.848162625549    -0.714736263142     1.007825032230
         H            3.140056676101    -1.210837374451     1.207263736858     1.007825032230
         H            4.136326676101     0.372792625549    -1.532516263142     1.007825032230

  Running in c1 symmetry.

  Rotational constants: A =      0.07296  B =      0.01757  C =      0.01496 [cm^-1]
  Rotational constants: A =   2187.37953  B =    526.59004  C =    448.63376 [MHz]
  Nuclear repulsion =  488.435471026507287

  Charge       = 0
  Multiplicity = 1
  Electrons    = 76
  Nalpha       = 38
  Nbeta        = 38

  ==> Algorithm <==

  SCF Algorithm Type is PK.
  DIIS enabled.
  MOM disabled.
  Fractional occupation disabled.
  Guess Type is SAD.
  Energy threshold   = 1.00e-06
  Density threshold  = 1.00e-10
  Integral threshold = 0.00e+00

  ==> Primary Basis <==

  Basis Set: CC-PVDZ
    Blend: CC-PVDZ
    Number of shells: 102
    Number of basis function: 210
    Number of Cartesian functions: 220
    Spherical Harmonics?: true
    Max angular momentum: 2

  ==> Pre-Iterations <==

   -------------------------------------------------------
    Irrep   Nso     Nmo     Nalpha   Nbeta   Ndocc  Nsocc
   -------------------------------------------------------
     A        210     210       0       0       0       0
   -------------------------------------------------------
    Total     210     210      38      38      38       0
   -------------------------------------------------------

  ==> Integral Setup <==

  Using integral reordering PK algorithm.
  Sizing the integral batches needed.
  Building batch lookup table.
   Calculation information:
      Number of atoms:                  24
      Number of AO shells:             102
      Number of primitives:            290
      Number of atomic orbitals:       220
      Number of basis functions:       210

      Integral cutoff                 1.00e-12
      Number of threads:                 1

	Batch   1 pq = [       0,    9405] index = [             0,44231715] size =     44231715
	Batch   2 pq = [    9405,   13301] index = [      44231715,88464951] size =     44233236
	Batch   3 pq = [   13301,   16290] index = [      88464951,132690195] size =     44225244
	Batch   4 pq = [   16290,   18810] index = [     132690195,176917455] size =     44227260
	Batch   5 pq = [   18810,   21030] index = [     176917455,221140965] size =     44223510
	Batch   6 pq = [   21030,   22155] index = [     221140965,245433090] size =     24292125
  Task number: 23
  Buffer size: 11059200
  Buffer per thread: 2
  We computed 10597347 shell quartets total.
  Whereas there are 13799631 unique shell quartets.

  ==> DiskJK: Disk-Based J/K Matrices <==

    J tasked:                  Yes
    K tasked:                  Yes
    wK tasked:                  No
    Memory [MiB]:              375
    Schwarz Cutoff:          1E-12

    OpenMP threads:              1

  Minimum eigenvalue in the overlap matrix is 3.2227733445E-04.
  Using Symmetric Orthogonalization.

  SCF Guess: Superposition of Atomic Densities via on-the-fly atomic UHF.

  ==> Iterations <==

                        Total Energy        Delta E     RMS |[F,P]|

   @RHF iter SAD:  -422.68035024127630   -4.22680e+02   0.00000e+00 
   @RHF iter   1:  -423.59515421349931   -9.14804e-01   2.99596e-03 DIIS
   @RHF iter   2:  -423.81308612588577   -2.17932e-01   1.27610e-03 DIIS
   @RHF iter   3:  -423.84898644321981   -3.59003e-02   2.88804e-04 DIIS
   @RHF iter   4:  -423.85190902481838   -2.92258e-03   1.22463e-04 DIIS
   @RHF iter   5:  -423.85229520759628   -3.86183e-04   2.07201e-05 DIIS
   @RHF iter   6:  -423.85231265062356   -1.74430e-05   6.37506e-06 DIIS
   @RHF iter   7:  -423.85231424584163   -1.59522e-06   2.05393e-06 DIIS
   @RHF iter   8:  -423.85231444561379   -1.99772e-07   7.72228e-07 DIIS
   @RHF iter   9:  -423.85231447484591   -2.92321e-08   2.55100e-07 DIIS
   @RHF iter  10:  -423.85231447877106   -3.92515e-09   8.38495e-08 DIIS
   @RHF iter  11:  -423.85231447954664   -7.75572e-10   3.96577e-08 DIIS
   @RHF iter  12:  -423.85231447973030   -1.83661e-10   2.04814e-08 DIIS
   @RHF iter  13:  -423.85231447978720   -5.69003e-11   7.91098e-09 DIIS
   @RHF iter  14:  -423.85231447979567   -8.46967e-12   1.98061e-09 DIIS
   @RHF iter  15:  -423.85231447979828   -2.61480e-12   7.42907e-10 DIIS
   @RHF iter  16:  -423.85231447979993   -1.64846e-12   2.40369e-10 DIIS
   @RHF iter  17:  -423.85231447979828    1.64846e-12   1.08368e-10 DIIS
   @RHF iter  18:  -423.85231447979709    1.19371e-12   5.58509e-11 DIIS
  Energy and wave function converged.


  ==> Post-Iterations <==

    Orbital Energies [Eh]
    ---------------------

    Doubly Occupied:                                                      

       1A    -20.586411     2A    -11.299932     3A    -11.241030  
       4A    -11.239064     5A    -11.235960     6A    -11.233071  
       7A    -11.229456     8A    -11.227271     9A    -11.208452  
      10A    -11.201386    11A     -1.397666    12A     -1.148927  
      13A     -1.039008    14A     -1.017670    15A     -1.011514  
      16A     -0.927749    17A     -0.844766    18A     -0.827888  
      19A     -0.799500    20A     -0.731008    21A     -0.663585  
      22A     -0.640325    23A     -0.609529    24A     -0.595051  
      25A     -0.592663    26A     -0.585315    27A     -0.581143  
      28A     -0.574080    29A     -0.564672    30A     -0.527378  
      31A     -0.503435    32A     -0.495533    33A     -0.483013  
      34A     -0.473716    35A     -0.471028    36A     -0.465490  
      37A     -0.333494    38A     -0.305491  

    Virtual:                                                              

      39A      0.127701    40A      0.156081    41A      0.178383  
      42A      0.186814    43A      0.196920    44A      0.214759  
      45A      0.219964    46A      0.243611    47A      0.253986  
      48A      0.257339    49A      0.265142    50A      0.277747  
      51A      0.287929    52A      0.306490    53A      0.320394  
      54A      0.332838    55A      0.367578    56A      0.374856  
      57A      0.416974    58A      0.431879    59A      0.459080  
      60A      0.481085    61A      0.493465    62A      0.510701  
      63A      0.599738    64A      0.604003    65A      0.607458  
      66A      0.632007    67A      0.637694    68A      0.652306  
      69A      0.659316    70A      0.684595    71A      0.687089  
      72A      0.708831    73A      0.715226    74A      0.717516  
      75A      0.736379    76A      0.742585    77A      0.753903  
      78A      0.776235    79A      0.787373    80A      0.792299  
      81A      0.803615    82A      0.840564    83A      0.848298  
      84A      0.858023    85A      0.877053    86A      0.882217  
      87A      0.885725    88A      0.888089    89A      0.892839  
      90A      0.903032    91A      0.915127    92A      0.920562  
      93A      0.928840    94A      0.935092    95A      0.936162  
      96A      0.942633    97A      0.952239    98A      0.975224  
      99A      0.998469   100A      1.023355   101A      1.038411  
     102A      1.058820   103A      1.119199   104A      1.124575  
     105A      1.131164   106A      1.144566   107A      1.164413  
     108A      1.164574   109A      1.199282   110A      1.238058  
     111A      1.246902   112A      1.261363   113A      1.264946  
     114A      1.290091   115A      1.299873   116A      1.308387  
     117A      1.314522   118A      1.349488   119A      1.387641  
     120A      1.390452   121A      1.476107   122A      1.486752  
     123A      1.503147   124A      1.522842   125A      1.545808  
     126A      1.556511   127A      1.606978   128A      1.621091  
     129A      1.658607   130A      1.677992   131A      1.695338  
     132A      1.698580   133A      1.719588   134A      1.724858  
     135A      1.744527   136A      1.785327   137A      1.801304  
     138A      1.805841   139A      1.852972   140A      1.863032  
     141A      1.870353   142A      1.887743   143A      1.897290  
     144A      1.906354   145A      1.909869   146A      1.917829  
     147A      1.925349   148A      1.938550   149A      1.953392  
     150A      1.958200   151A      1.962758   152A      1.965621  
     153A      1.977969   154A      1.983906   155A      1.991984  
     156A      2.026621   157A      2.032645   158A      2.050742  
     159A      2.059130   160A      2.074847   161A      2.094459  
     162A      2.130798   163A      2.142151   164A      2.162783  
     165A      2.174963   166A      2.204060   167A      2.210462  
     168A      2.226183   169A      2.262897   170A      2.274589  
     171A      2.297131   172A      2.327982   173A      2.341806  
     174A      2.352789   175A      2.367032   176A      2.421132  
     177A      2.425631   178A      2.438920   179A      2.445142  
     180A      2.475354   181A      2.499331   182A      2.524366  
     183A      2.547117   184A      2.602898   185A      2.611876  
     186A      2.624127   187A      2.636464   188A      2.746204  
     189A      2.766760   190A      2.773174   191A      2.779684  
     192A      2.802823   193A      2.820899   194A      2.836293  
     195A      2.852145   196A      2.861105   197A      2.894102  
     198A      2.959008   199A      2.966744   200A      2.988932  
     201A      3.009232   202A      3.072646   203A      3.112942  
     204A      3.248298   205A      3.276878   206A      3.350620  
     207A      3.555972   208A      3.675012   209A      3.930651  
     210A      4.190298  

    Final Occupation by Irrep:
              A 
    DOCC [    38 ]

  @RHF Final Energy:  -423.85231447979709

   => Energetics <=

    Nuclear Repulsion Energy =            488.4354710265072868
    One-Electron Energy =               -1542.7502264450604343
    Two-Electron Energy =                 630.4624409387561172
    Total Energy =                       -423.8523144797970872

Computation Completed


Properties will be evaluated at   0.000000,   0.000000,   0.000000 [a0]

Properties computed using the SCF density matrix

  Nuclear Dipole Moment: [e a0]
     X:    -7.8373      Y:     8.2193      Z:    -0.4652

  Electronic Dipole Moment: [e a0]
     X:     8.2434      Y:    -8.4238      Z:     0.8962

  Dipole Moment: [e a0]
     X:     0.4061      Y:    -0.2045      Z:     0.4310     Total:     0.6265

  Dipole Moment: [D]
     X:     1.0322      Y:    -0.5198      Z:     1.0955     Total:     1.5924


*** tstop() called on ds3 at Tue Apr 28 20:16:41 2020
Module time:
	user time   =      80.55 seconds =       1.34 minutes
	system time =      38.57 seconds =       0.64 minutes
	total time  =        115 seconds =       1.92 minutes
Total time:
	user time   =      80.55 seconds =       1.34 minutes
	system time =      38.57 seconds =       0.64 minutes
	total time  =        115 seconds =       1.92 minutes
                                     G D M A

                                 by Anthony Stone

                           version 2.2.06, 22 June 2011

               Distributed Multipoles from Gaussian wavefunctions


Starting at 20:16:41 on 28 Apr 2020 


Using SCF density matrix from file ./SSI/SSI-005ILE-234TYR-1-dimer.test.30044.fchk


                         Distributed Multipole Analysis

Standard DMA

Positions and radii in angstrom
Multipole moments in atomic units, ea_0^k for rank k

C          x = -3.379943  y =  1.251163  z = -0.313736 angstrom
           Maximum rank =  0   Radius =  0.650 angstrom
                   Q00  =  -0.236439

C          x = -4.469943  y =  1.994163  z =  0.397264 angstrom
           Maximum rank =  0   Radius =  0.650 angstrom
                   Q00  =  -0.236726

H          x = -3.541943  y =  1.285163  z = -1.390736 angstrom
           Maximum rank =  0   Radius =  0.325 angstrom
                   Q00  =   0.066997

H          x = -2.419943  y =  1.697163  z = -0.079736 angstrom
           Maximum rank =  0   Radius =  0.325 angstrom
                   Q00  =   0.080465

H          x = -3.332943  y =  0.213163  z =  0.003264 angstrom
           Maximum rank =  0   Radius =  0.325 angstrom
                   Q00  =   0.089673

H          x = -4.763943  y =  2.858163  z = -0.199736 angstrom
           Maximum rank =  0   Radius =  0.325 angstrom
                   Q00  =   0.078552

H          x = -4.067943  y =  2.376163  z =  1.337264 angstrom
           Maximum rank =  0   Radius =  0.325 angstrom
                   Q00  =   0.077215

H          x = -5.343823  y =  1.368623  z =  0.631844 angstrom
           Maximum rank =  0   Radius =  0.325 angstrom
                   Q00  =   0.076344

C          x =  3.709057  y =  0.774163  z = -0.601736 angstrom
           Maximum rank =  0   Radius =  0.650 angstrom
                   Q00  =  -0.198782

C          x = -0.015943  y = -0.044837  z = -0.701736 angstrom
           Maximum rank =  0   Radius =  0.650 angstrom
                   Q00  =  -0.105666

C          x = -0.145943  y = -1.032837  z =  0.247264 angstrom
           Maximum rank =  0   Radius =  0.650 angstrom
                   Q00  =   0.302048

C          x =  1.233057  y =  0.546163  z = -0.940736 angstrom
           Maximum rank =  0   Radius =  0.650 angstrom
                   Q00  =   0.034813

C          x =  2.379057  y =  0.138163  z = -0.274736 angstrom
           Maximum rank =  0   Radius =  0.650 angstrom
                   Q00  =  -0.123097

C          x =  1.004057  y = -1.448837  z =  0.954264 angstrom
           Maximum rank =  0   Radius =  0.650 angstrom
                   Q00  =  -0.182763

C          x =  2.262057  y = -0.869837  z =  0.674264 angstrom
           Maximum rank =  0   Radius =  0.650 angstrom
                   Q00  =  -0.053722

O          x = -1.405943  y = -1.533837  z =  0.451264 angstrom
           Maximum rank =  0   Radius =  0.650 angstrom
                   Q00  =  -0.663353

H          x = -0.883943  y =  0.278163  z = -1.256736 angstrom
           Maximum rank =  0   Radius =  0.325 angstrom
                   Q00  =   0.088143

H          x =  1.306057  y =  1.328163  z = -1.685736 angstrom
           Maximum rank =  0   Radius =  0.325 angstrom
                   Q00  =   0.059191

H          x =  0.928057  y = -2.221837  z =  1.703264 angstrom
           Maximum rank =  0   Radius =  0.325 angstrom
                   Q00  =   0.076505

H          x = -1.472943  y = -2.048837  z =  1.262264 angstrom
           Maximum rank =  0   Radius =  0.325 angstrom
                   Q00  =   0.404140

H          x =  4.417057  y =  0.631163  z =  0.216264 angstrom
           Maximum rank =  0   Radius =  0.325 angstrom
                   Q00  =   0.097824

H          x =  3.547057  y =  1.848163  z = -0.714736 angstrom
           Maximum rank =  0   Radius =  0.325 angstrom
                   Q00  =   0.096592

H          x =  3.140057  y = -1.210837  z =  1.207264 angstrom
           Maximum rank =  0   Radius =  0.325 angstrom
                   Q00  =   0.070264

H          x =  4.136327  y =  0.372793  z = -1.532516 angstrom
           Maximum rank =  0   Radius =  0.325 angstrom
                   Q00  =   0.101782

Total multipoles referred to origin at
           x =   0.000000,  y =    0.000000,  z =    0.000000 angstrom
                   Q00  =  -0.000000

Finished at 20:16:41 on 28 Apr 2020 

  DMA results are available in the Python driver through the
	  variable('DMA DISTRIBUTED MULTIPOLES')
  and
	  variable('DMA TOTAL MULTIPOLES')
  commands.


    Psi4 stopped on: Tuesday, 28 April 2020 08:16PM
    Psi4 wall time for execution: 0:01:55.07

*** Psi4 exiting successfully. Buy a developer a beer!
