
    -----------------------------------------------------------------------
          Psi4: An Open-Source Ab Initio Electronic Structure Package
                               Psi4 1.3.2 release

                         Git: Rev {HEAD} ecbda83 


    R. M. Parrish, L. A. Burns, D. G. A. Smith, A. C. Simmonett,
    A. E. DePrince III, E. G. Hohenstein, U. Bozkaya, A. Yu. Sokolov,
    R. Di Remigio, R. M. Richard, J. F. Gonthier, A. M. James,
    H. R. McAlexander, A. Kumar, M. Saitow, X. Wang, B. P. Pritchard,
    P. Verma, H. F. Schaefer III, K. Patkowski, R. A. King, E. F. Valeev,
    F. A. Evangelista, J. M. Turney, T. D. Crawford, and C. D. Sherrill,
    J. Chem. Theory Comput. 13(7) pp 3185--3197 (2017).
    (doi: 10.1021/acs.jctc.7b00174)


                         Additional Contributions by
    P. Kraus, H. Kruse, M. H. Lechner, M. C. Schieber, R. A. Shaw,
    A. Alenaizan, R. Galvelis, Z. L. Glick, S. Lehtola, and J. P. Misiewicz

    -----------------------------------------------------------------------


    Psi4 started on: Tuesday, 28 April 2020 12:50AM

    Process ID: 1957
    Host:       ds3
    PSIDATADIR: /theoryfs2/ds/metcalf/miniconda2/envs/tf2gpu/share/psi4
    Memory:     500.0 MiB
    Threads:    1
    
  ==> Input File <==

--------------------------------------------------------------------------
import numpy as np
set {scf_type pk
basis cc-pvdz
d_convergence 10
gdma_switch   0
gdma_limit    0
gdma_origin   [ 0.0,  0.0,  0.0 ]
}
molecule test {
    units Angstrom
    0 1
    --
    0 1
    C               -1.219330817625669    -0.848144283900706     0.396811383606154
    C               -2.426330817625669    -1.712144283900706     0.720811383606154
    C               -0.129330817625668    -1.591144283900706    -0.314188616393846
    H               -1.513330817625668     0.015855716099294    -0.200188616393846
    H               -0.817330817625668    -0.466144283900706     1.336811383606155
    H               -3.178330817625668    -1.051144283900706     1.154811383606154
    H               -0.291330817625668    -1.557144283900706    -1.391188616393846
    H                0.830669182374332    -1.145144283900706    -0.080188616393846
    H               -0.082330817625668    -2.629144283900705     0.002811383606154
    H               -2.838270817625669    -2.139794283900705    -0.205158616393846
    H               -2.210660817625669    -2.481264283900706     1.477081383606154
    C                1.413669182374331     1.421855716099294    -0.425188616393846
    C                2.275669182374331     2.665855716099294    -0.360188616393846
    H                0.642669182374332     1.528855716099294    -1.190188616393846
    H                2.055669182374332     0.572855716099294    -0.658188616393846
    H                0.944669182374332     1.252855716099294     0.545811383606154
    H                3.049669182374331     2.487855716099294     0.384811383606154
    H                1.667189182374331     3.531635716099294    -0.059888616393846
    H                2.760919182374332     2.838585716099295    -1.332148616393846

}
e, wfn = energy('scf', return_wfn=True)
gdma(wfn)
dmavals = variable('DMA DISTRIBUTED MULTIPOLES')
charges = np.array(dmavals)
print(charges)
np.save('SSI-005ILE-277LEU-1-dimer.npy', np.array(charges))--------------------------------------------------------------------------

*** tstart() called on ds3
*** at Tue Apr 28 00:50:31 2020

   => Loading Basis Set <=

    Name: CC-PVDZ
    Role: ORBITAL
    Keyword: BASIS
    atoms 1-3, 12-13  entry C          line   138 file /theoryfs2/ds/metcalf/miniconda2/envs/tf2gpu/share/psi4/basis/cc-pvdz.gbs 
    atoms 4-11, 14-19 entry H          line    22 file /theoryfs2/ds/metcalf/miniconda2/envs/tf2gpu/share/psi4/basis/cc-pvdz.gbs 


         ---------------------------------------------------------
                                   SCF
               by Justin Turney, Rob Parrish, Andy Simmonett
                          and Daniel G. A. Smith
                              RHF Reference
                        1 Threads,    500 MiB Core
         ---------------------------------------------------------

  ==> Geometry <==

    Molecular point group: c1
    Full point group: C1

    Geometry (in Angstrom), charge = 0, multiplicity = 1:

       Center              X                  Y                   Z               Mass       
    ------------   -----------------  -----------------  -----------------  -----------------
         C           -1.219330817626    -0.848144283901     0.396811383606    12.000000000000
         C           -2.426330817626    -1.712144283901     0.720811383606    12.000000000000
         C           -0.129330817626    -1.591144283901    -0.314188616394    12.000000000000
         H           -1.513330817626     0.015855716099    -0.200188616394     1.007825032230
         H           -0.817330817626    -0.466144283901     1.336811383606     1.007825032230
         H           -3.178330817626    -1.051144283901     1.154811383606     1.007825032230
         H           -0.291330817626    -1.557144283901    -1.391188616394     1.007825032230
         H            0.830669182374    -1.145144283901    -0.080188616394     1.007825032230
         H           -0.082330817626    -2.629144283901     0.002811383606     1.007825032230
         H           -2.838270817626    -2.139794283901    -0.205158616394     1.007825032230
         H           -2.210660817626    -2.481264283901     1.477081383606     1.007825032230
         C            1.413669182374     1.421855716099    -0.425188616394    12.000000000000
         C            2.275669182374     2.665855716099    -0.360188616394    12.000000000000
         H            0.642669182374     1.528855716099    -1.190188616394     1.007825032230
         H            2.055669182374     0.572855716099    -0.658188616394     1.007825032230
         H            0.944669182374     1.252855716099     0.545811383606     1.007825032230
         H            3.049669182374     2.487855716099     0.384811383606     1.007825032230
         H            1.667189182374     3.531635716099    -0.059888616394     1.007825032230
         H            2.760919182374     2.838585716099    -1.332148616394     1.007825032230

  Running in c1 symmetry.

  Rotational constants: A =      0.37444  B =      0.03723  C =      0.03502 [cm^-1]
  Rotational constants: A =  11225.31438  B =   1116.21474  C =   1049.88122 [MHz]
  Nuclear repulsion =  180.413938297062884

  Charge       = 0
  Multiplicity = 1
  Electrons    = 44
  Nalpha       = 22
  Nbeta        = 22

  ==> Algorithm <==

  SCF Algorithm Type is PK.
  DIIS enabled.
  MOM disabled.
  Fractional occupation disabled.
  Guess Type is SAD.
  Energy threshold   = 1.00e-06
  Density threshold  = 1.00e-10
  Integral threshold = 0.00e+00

  ==> Primary Basis <==

  Basis Set: CC-PVDZ
    Blend: CC-PVDZ
    Number of shells: 72
    Number of basis function: 140
    Number of Cartesian functions: 145
    Spherical Harmonics?: true
    Max angular momentum: 2

  ==> Pre-Iterations <==

   -------------------------------------------------------
    Irrep   Nso     Nmo     Nalpha   Nbeta   Ndocc  Nsocc
   -------------------------------------------------------
     A        140     140       0       0       0       0
   -------------------------------------------------------
    Total     140     140      22      22      22       0
   -------------------------------------------------------

  ==> Integral Setup <==

  Using integral reordering PK algorithm.
  Sizing the integral batches needed.
  Building batch lookup table.
   Calculation information:
      Number of atoms:                  19
      Number of AO shells:              72
      Number of primitives:            180
      Number of atomic orbitals:       145
      Number of basis functions:       140

      Integral cutoff                 1.00e-12
      Number of threads:                 1

	Batch   1 pq = [       0,    9405] index = [             0,44231715] size =     44231715
	Batch   2 pq = [    9405,    9870] index = [      44231715,48713385] size =      4481670
  Task number: 5
  Buffer size: 11059200
  Buffer per thread: 2
  We computed 2831485 shell quartets total.
  Whereas there are 3454506 unique shell quartets.

  ==> DiskJK: Disk-Based J/K Matrices <==

    J tasked:                  Yes
    K tasked:                  Yes
    wK tasked:                  No
    Memory [MiB]:              375
    Schwarz Cutoff:          1E-12

    OpenMP threads:              1

  Minimum eigenvalue in the overlap matrix is 4.6237707665E-03.
  Using Symmetric Orthogonalization.

  SCF Guess: Superposition of Atomic Densities via on-the-fly atomic UHF.

  ==> Iterations <==

                        Total Energy        Delta E     RMS |[F,P]|

   @RHF iter SAD:  -196.49809664528567   -1.96498e+02   0.00000e+00 
   @RHF iter   1:  -197.29948971834480   -8.01393e-01   3.87439e-03 DIIS
   @RHF iter   2:  -197.46446036060706   -1.64971e-01   1.67901e-03 DIIS
   @RHF iter   3:  -197.49412605378296   -2.96657e-02   3.32271e-04 DIIS
   @RHF iter   4:  -197.49642474386704   -2.29869e-03   5.20608e-05 DIIS
   @RHF iter   5:  -197.49646804435264   -4.33005e-05   1.53919e-05 DIIS
   @RHF iter   6:  -197.49647168878741   -3.64443e-06   2.49922e-06 DIIS
   @RHF iter   7:  -197.49647179748027   -1.08693e-07   4.57527e-07 DIIS
   @RHF iter   8:  -197.49647180144584   -3.96557e-09   1.15210e-07 DIIS
   @RHF iter   9:  -197.49647180167827   -2.32433e-10   3.35443e-08 DIIS
   @RHF iter  10:  -197.49647180170405   -2.57785e-11   6.85385e-09 DIIS
   @RHF iter  11:  -197.49647180170510   -1.05160e-12   1.35686e-09 DIIS
   @RHF iter  12:  -197.49647180170504    5.68434e-14   3.12355e-10 DIIS
   @RHF iter  13:  -197.49647180170547   -4.26326e-13   8.96383e-11 DIIS
  Energy and wave function converged.


  ==> Post-Iterations <==

    Orbital Energies [Eh]
    ---------------------

    Doubly Occupied:                                                      

       1A    -11.217683     2A    -11.215605     3A    -11.215509  
       4A    -11.214303     5A    -11.206319     6A     -1.058397  
       7A     -1.022790     8A     -0.925873     9A     -0.834160  
      10A     -0.793283    11A     -0.627969    12A     -0.603448  
      13A     -0.600749    14A     -0.595007    15A     -0.549094  
      16A     -0.536708    17A     -0.498326    18A     -0.488907  
      19A     -0.484236    20A     -0.471534    21A     -0.465644  
      22A     -0.457134  

    Virtual:                                                              

      23A      0.175479    24A      0.193773    25A      0.217858  
      26A      0.225794    27A      0.231321    28A      0.248610  
      29A      0.262958    30A      0.272348    31A      0.278257  
      32A      0.282563    33A      0.289997    34A      0.310211  
      35A      0.318586    36A      0.354677    37A      0.375984  
      38A      0.408222    39A      0.433434    40A      0.563306  
      41A      0.589846    42A      0.601583    43A      0.604607  
      44A      0.605957    45A      0.630592    46A      0.638555  
      47A      0.698001    48A      0.708399    49A      0.742751  
      50A      0.797272    51A      0.806736    52A      0.864470  
      53A      0.886065    54A      0.890142    55A      0.892230  
      56A      0.893991    57A      0.896138    58A      0.903222  
      59A      0.907759    60A      0.910724    61A      0.914588  
      62A      0.925773    63A      0.932496    64A      0.946910  
      65A      0.961508    66A      0.976576    67A      0.997205  
      68A      1.042438    69A      1.116330    70A      1.126656  
      71A      1.137207    72A      1.152904    73A      1.198528  
      74A      1.291784    75A      1.416197    76A      1.446144  
      77A      1.482031    78A      1.483100    79A      1.490125  
      80A      1.541168    81A      1.590827    82A      1.654570  
      83A      1.671866    84A      1.680318    85A      1.687191  
      86A      1.697154    87A      1.733149    88A      1.842142  
      89A      1.851057    90A      1.868750    91A      1.875856  
      92A      1.888282    93A      1.912835    94A      1.927920  
      95A      1.939689    96A      1.941669    97A      1.948109  
      98A      1.955365    99A      1.974348   100A      1.980355  
     101A      1.989368   102A      1.994166   103A      2.010482  
     104A      2.024102   105A      2.043968   106A      2.062059  
     107A      2.098709   108A      2.109452   109A      2.122782  
     110A      2.164887   111A      2.197618   112A      2.271039  
     113A      2.301336   114A      2.332780   115A      2.343208  
     116A      2.372497   117A      2.382284   118A      2.464750  
     119A      2.472811   120A      2.480196   121A      2.537474  
     122A      2.553968   123A      2.574242   124A      2.578615  
     125A      2.627965   126A      2.670889   127A      2.763143  
     128A      2.766925   129A      2.789529   130A      2.795548  
     131A      2.814371   132A      2.843671   133A      2.850948  
     134A      2.869661   135A      2.910973   136A      2.949866  
     137A      2.961019   138A      2.964897   139A      2.996767  
     140A      3.062685  

    Final Occupation by Irrep:
              A 
    DOCC [    22 ]

  @RHF Final Energy:  -197.49647180170547

   => Energetics <=

    Nuclear Repulsion Energy =            180.4139382970628844
    One-Electron Energy =                -621.6554664342629621
    Two-Electron Energy =                 243.7450563354946098
    Total Energy =                       -197.4964718017054679

Computation Completed


Properties will be evaluated at   0.000000,   0.000000,   0.000000 [a0]

Properties computed using the SCF density matrix

  Nuclear Dipole Moment: [e a0]
     X:     0.9561      Y:     0.7113      Z:    -0.2016

  Electronic Dipole Moment: [e a0]
     X:    -0.9236      Y:    -0.6675      Z:     0.2206

  Dipole Moment: [e a0]
     X:     0.0325      Y:     0.0438      Z:     0.0190     Total:     0.0577

  Dipole Moment: [D]
     X:     0.0825      Y:     0.1112      Z:     0.0483     Total:     0.1467


*** tstop() called on ds3 at Tue Apr 28 00:50:51 2020
Module time:
	user time   =      14.56 seconds =       0.24 minutes
	system time =       6.08 seconds =       0.10 minutes
	total time  =         20 seconds =       0.33 minutes
Total time:
	user time   =      14.56 seconds =       0.24 minutes
	system time =       6.08 seconds =       0.10 minutes
	total time  =         20 seconds =       0.33 minutes
                                     G D M A

                                 by Anthony Stone

                           version 2.2.06, 22 June 2011

               Distributed Multipoles from Gaussian wavefunctions


Starting at 0:50:51 on 28 Apr 2020  


Using SCF density matrix from file ./SSI/SSI-005ILE-277LEU-1-dimer.test.1957.fchk


                         Distributed Multipole Analysis

Standard DMA

Positions and radii in angstrom
Multipole moments in atomic units, ea_0^k for rank k

C          x = -1.219331  y = -0.848144  z =  0.396811 angstrom
           Maximum rank =  0   Radius =  0.650 angstrom
                   Q00  =  -0.073278

C          x = -2.426331  y = -1.712144  z =  0.720811 angstrom
           Maximum rank =  0   Radius =  0.650 angstrom
                   Q00  =  -0.247474

C          x = -0.129331  y = -1.591144  z = -0.314189 angstrom
           Maximum rank =  0   Radius =  0.650 angstrom
                   Q00  =  -0.246427

H          x = -1.513331  y =  0.015856  z = -0.200189 angstrom
           Maximum rank =  0   Radius =  0.325 angstrom
                   Q00  =   0.052075

H          x = -0.817331  y = -0.466144  z =  1.336811 angstrom
           Maximum rank =  0   Radius =  0.325 angstrom
                   Q00  =   0.042593

H          x = -3.178331  y = -1.051144  z =  1.154811 angstrom
           Maximum rank =  0   Radius =  0.325 angstrom
                   Q00  =   0.077917

H          x = -0.291331  y = -1.557144  z = -1.391189 angstrom
           Maximum rank =  0   Radius =  0.325 angstrom
                   Q00  =   0.074008

H          x =  0.830669  y = -1.145144  z = -0.080189 angstrom
           Maximum rank =  0   Radius =  0.325 angstrom
                   Q00  =   0.091690

H          x = -0.082331  y = -2.629144  z =  0.002811 angstrom
           Maximum rank =  0   Radius =  0.325 angstrom
                   Q00  =   0.071052

H          x = -2.838271  y = -2.139794  z = -0.205159 angstrom
           Maximum rank =  0   Radius =  0.325 angstrom
                   Q00  =   0.075283

H          x = -2.210661  y = -2.481264  z =  1.477081 angstrom
           Maximum rank =  0   Radius =  0.325 angstrom
                   Q00  =   0.081195

C          x =  1.413669  y =  1.421856  z = -0.425189 angstrom
           Maximum rank =  0   Radius =  0.650 angstrom
                   Q00  =  -0.228621

C          x =  2.275669  y =  2.665856  z = -0.360189 angstrom
           Maximum rank =  0   Radius =  0.650 angstrom
                   Q00  =  -0.233669

H          x =  0.642669  y =  1.528856  z = -1.190189 angstrom
           Maximum rank =  0   Radius =  0.325 angstrom
                   Q00  =   0.079257

H          x =  2.055669  y =  0.572856  z = -0.658189 angstrom
           Maximum rank =  0   Radius =  0.325 angstrom
                   Q00  =   0.075295

H          x =  0.944669  y =  1.252856  z =  0.545811 angstrom
           Maximum rank =  0   Radius =  0.325 angstrom
                   Q00  =   0.076088

H          x =  3.049669  y =  2.487856  z =  0.384811 angstrom
           Maximum rank =  0   Radius =  0.325 angstrom
                   Q00  =   0.076406

H          x =  1.667189  y =  3.531636  z = -0.059889 angstrom
           Maximum rank =  0   Radius =  0.325 angstrom
                   Q00  =   0.078222

H          x =  2.760919  y =  2.838586  z = -1.332149 angstrom
           Maximum rank =  0   Radius =  0.325 angstrom
                   Q00  =   0.078388

Total multipoles referred to origin at
           x =   0.000000,  y =    0.000000,  z =    0.000000 angstrom
                   Q00  =  -0.000000

Finished at 0:50:51 on 28 Apr 2020  

  DMA results are available in the Python driver through the
	  variable('DMA DISTRIBUTED MULTIPOLES')
  and
	  variable('DMA TOTAL MULTIPOLES')
  commands.


    Psi4 stopped on: Tuesday, 28 April 2020 12:50AM
    Psi4 wall time for execution: 0:00:20.46

*** Psi4 exiting successfully. Buy a developer a beer!
