
    -----------------------------------------------------------------------
          Psi4: An Open-Source Ab Initio Electronic Structure Package
                               Psi4 1.3.2 release

                         Git: Rev {HEAD} ecbda83 


    R. M. Parrish, L. A. Burns, D. G. A. Smith, A. C. Simmonett,
    A. E. DePrince III, E. G. Hohenstein, U. Bozkaya, A. Yu. Sokolov,
    R. Di Remigio, R. M. Richard, J. F. Gonthier, A. M. James,
    H. R. McAlexander, A. Kumar, M. Saitow, X. Wang, B. P. Pritchard,
    P. Verma, H. F. Schaefer III, K. Patkowski, R. A. King, E. F. Valeev,
    F. A. Evangelista, J. M. Turney, T. D. Crawford, and C. D. Sherrill,
    J. Chem. Theory Comput. 13(7) pp 3185--3197 (2017).
    (doi: 10.1021/acs.jctc.7b00174)


                         Additional Contributions by
    P. Kraus, H. Kruse, M. H. Lechner, M. C. Schieber, R. A. Shaw,
    A. Alenaizan, R. Galvelis, Z. L. Glick, S. Lehtola, and J. P. Misiewicz

    -----------------------------------------------------------------------


    Psi4 started on: Monday, 27 April 2020 10:24PM

    Process ID: 11913
    Host:       ds3
    PSIDATADIR: /theoryfs2/ds/metcalf/miniconda2/envs/tf2gpu/share/psi4
    Memory:     500.0 MiB
    Threads:    1
    
  ==> Input File <==

--------------------------------------------------------------------------
import numpy as np
set {scf_type pk
basis cc-pvdz
d_convergence 10
gdma_switch   0
gdma_limit    0
gdma_origin   [ 0.0,  0.0,  0.0 ]
}
molecule test {
    units Angstrom
    0 1
    --
    0 1
    C               -3.867255611266026    -1.591821765758224    -0.051416565647613
    C               -0.326255611266026    -0.354821765758224     0.496583434352387
    C                0.355744388733974    -0.996821765758224    -0.532416565647613
    C               -1.697255611266026    -0.545821765758224     0.658583434352387
    C               -2.390255611266026    -1.398821765758224    -0.194416565647613
    C               -0.334255611266026    -1.840821765758224    -1.387416565647613
    C               -1.703255611266026    -2.041821765758224    -1.218416565647613
    H                0.206744388733974     0.289178234241776     1.180583434352387
    H                1.415744388733974    -0.850821765758224    -0.650416565647613
    H               -2.214255611266026    -0.041821765758224     1.458583434352387
    H                0.189744388733974    -2.345821765758224    -2.187416565647613
    H               -4.214255611266027    -1.118821765758224     0.866583434352387
    H               -4.062255611266026    -2.656821765758223     0.037583434352387
    H               -2.227255611266026    -2.707821765758224    -1.888416565647613
    H               -4.432452211266027    -1.181030765758224    -0.901006565647613
    C                2.616744388733974     2.070178234241776     0.582583434352387
    C                2.066744388733974     3.485178234241776     0.349583434352387
    O                4.007744388733974     2.085178234241776     0.898583434352387
    H                2.087744388733974     1.612178234241776     1.418583434352387
    H                2.446744388733973     1.460178234241776    -0.307416565647613
    H                2.365744388733974     4.114178234241776     1.189583434352387
    H                4.251744388733974     1.220178234241776     1.261583434352387
    H                0.969626388733974     3.467838234241776     0.271913434352387
    H                2.470552388733974     3.931108234241776    -0.571326565647613

}
e, wfn = energy('scf', return_wfn=True)
gdma(wfn)
dmavals = variable('DMA DISTRIBUTED MULTIPOLES')
charges = np.array(dmavals)
print(charges)
np.save('SSI-127PHE-133SER-1-dimer.npy', np.array(charges))--------------------------------------------------------------------------

*** tstart() called on ds3
*** at Mon Apr 27 22:24:10 2020

   => Loading Basis Set <=

    Name: CC-PVDZ
    Role: ORBITAL
    Keyword: BASIS
    atoms 1-7, 16-17  entry C          line   138 file /theoryfs2/ds/metcalf/miniconda2/envs/tf2gpu/share/psi4/basis/cc-pvdz.gbs 
    atoms 8-15, 19-24 entry H          line    22 file /theoryfs2/ds/metcalf/miniconda2/envs/tf2gpu/share/psi4/basis/cc-pvdz.gbs 
    atoms 18          entry O          line   198 file /theoryfs2/ds/metcalf/miniconda2/envs/tf2gpu/share/psi4/basis/cc-pvdz.gbs 


         ---------------------------------------------------------
                                   SCF
               by Justin Turney, Rob Parrish, Andy Simmonett
                          and Daniel G. A. Smith
                              RHF Reference
                        1 Threads,    500 MiB Core
         ---------------------------------------------------------

  ==> Geometry <==

    Molecular point group: c1
    Full point group: C1

    Geometry (in Angstrom), charge = 0, multiplicity = 1:

       Center              X                  Y                   Z               Mass       
    ------------   -----------------  -----------------  -----------------  -----------------
         C           -3.867255611266    -1.591821765758    -0.051416565648    12.000000000000
         C           -0.326255611266    -0.354821765758     0.496583434352    12.000000000000
         C            0.355744388734    -0.996821765758    -0.532416565648    12.000000000000
         C           -1.697255611266    -0.545821765758     0.658583434352    12.000000000000
         C           -2.390255611266    -1.398821765758    -0.194416565648    12.000000000000
         C           -0.334255611266    -1.840821765758    -1.387416565648    12.000000000000
         C           -1.703255611266    -2.041821765758    -1.218416565648    12.000000000000
         H            0.206744388734     0.289178234242     1.180583434352     1.007825032230
         H            1.415744388734    -0.850821765758    -0.650416565648     1.007825032230
         H           -2.214255611266    -0.041821765758     1.458583434352     1.007825032230
         H            0.189744388734    -2.345821765758    -2.187416565648     1.007825032230
         H           -4.214255611266    -1.118821765758     0.866583434352     1.007825032230
         H           -4.062255611266    -2.656821765758     0.037583434352     1.007825032230
         H           -2.227255611266    -2.707821765758    -1.888416565648     1.007825032230
         H           -4.432452211266    -1.181030765758    -0.901006565648     1.007825032230
         C            2.616744388734     2.070178234242     0.582583434352    12.000000000000
         C            2.066744388734     3.485178234242     0.349583434352    12.000000000000
         O            4.007744388734     2.085178234242     0.898583434352    15.994914619570
         H            2.087744388734     1.612178234242     1.418583434352     1.007825032230
         H            2.446744388734     1.460178234242    -0.307416565648     1.007825032230
         H            2.365744388734     4.114178234242     1.189583434352     1.007825032230
         H            4.251744388734     1.220178234242     1.261583434352     1.007825032230
         H            0.969626388734     3.467838234242     0.271913434352     1.007825032230
         H            2.470552388734     3.931108234242    -0.571326565648     1.007825032230

  Running in c1 symmetry.

  Rotational constants: A =      0.09168  B =      0.01329  C =      0.01226 [cm^-1]
  Rotational constants: A =   2748.35791  B =    398.56030  C =    367.54479 [MHz]
  Nuclear repulsion =  470.881865633346138

  Charge       = 0
  Multiplicity = 1
  Electrons    = 76
  Nalpha       = 38
  Nbeta        = 38

  ==> Algorithm <==

  SCF Algorithm Type is PK.
  DIIS enabled.
  MOM disabled.
  Fractional occupation disabled.
  Guess Type is SAD.
  Energy threshold   = 1.00e-06
  Density threshold  = 1.00e-10
  Integral threshold = 0.00e+00

  ==> Primary Basis <==

  Basis Set: CC-PVDZ
    Blend: CC-PVDZ
    Number of shells: 102
    Number of basis function: 210
    Number of Cartesian functions: 220
    Spherical Harmonics?: true
    Max angular momentum: 2

  ==> Pre-Iterations <==

   -------------------------------------------------------
    Irrep   Nso     Nmo     Nalpha   Nbeta   Ndocc  Nsocc
   -------------------------------------------------------
     A        210     210       0       0       0       0
   -------------------------------------------------------
    Total     210     210      38      38      38       0
   -------------------------------------------------------

  ==> Integral Setup <==

  Using integral reordering PK algorithm.
  Sizing the integral batches needed.
  Building batch lookup table.
   Calculation information:
      Number of atoms:                  24
      Number of AO shells:             102
      Number of primitives:            290
      Number of atomic orbitals:       220
      Number of basis functions:       210

      Integral cutoff                 1.00e-12
      Number of threads:                 1

	Batch   1 pq = [       0,    9405] index = [             0,44231715] size =     44231715
	Batch   2 pq = [    9405,   13301] index = [      44231715,88464951] size =     44233236
	Batch   3 pq = [   13301,   16290] index = [      88464951,132690195] size =     44225244
	Batch   4 pq = [   16290,   18810] index = [     132690195,176917455] size =     44227260
	Batch   5 pq = [   18810,   21030] index = [     176917455,221140965] size =     44223510
	Batch   6 pq = [   21030,   22155] index = [     221140965,245433090] size =     24292125
  Task number: 23
  Buffer size: 11059200
  Buffer per thread: 2
  We computed 10140944 shell quartets total.
  Whereas there are 13799631 unique shell quartets.

  ==> DiskJK: Disk-Based J/K Matrices <==

    J tasked:                  Yes
    K tasked:                  Yes
    wK tasked:                  No
    Memory [MiB]:              375
    Schwarz Cutoff:          1E-12

    OpenMP threads:              1

  Minimum eigenvalue in the overlap matrix is 3.0309586462E-04.
  Using Symmetric Orthogonalization.

  SCF Guess: Superposition of Atomic Densities via on-the-fly atomic UHF.

  ==> Iterations <==

                        Total Energy        Delta E     RMS |[F,P]|

   @RHF iter SAD:  -422.59135606425627   -4.22591e+02   0.00000e+00 
   @RHF iter   1:  -423.59981692783066   -1.00846e+00   2.96553e-03 DIIS
   @RHF iter   2:  -423.80893090838043   -2.09114e-01   1.35158e-03 DIIS
   @RHF iter   3:  -423.84600471870880   -3.70738e-02   2.85822e-04 DIIS
   @RHF iter   4:  -423.84883719682392   -2.83248e-03   8.87936e-05 DIIS
   @RHF iter   5:  -423.84902669231292   -1.89495e-04   1.81266e-05 DIIS
   @RHF iter   6:  -423.84903724932519   -1.05570e-05   5.36580e-06 DIIS
   @RHF iter   7:  -423.84903820779914   -9.58474e-07   1.85465e-06 DIIS
   @RHF iter   8:  -423.84903832005347   -1.12254e-07   4.62004e-07 DIIS
   @RHF iter   9:  -423.84903833221927   -1.21658e-08   1.84045e-07 DIIS
   @RHF iter  10:  -423.84903833459782   -2.37856e-09   6.42673e-08 DIIS
   @RHF iter  11:  -423.84903833521321   -6.15387e-10   2.74029e-08 DIIS
   @RHF iter  12:  -423.84903833532769   -1.14483e-10   1.26388e-08 DIIS
   @RHF iter  13:  -423.84903833534855   -2.08615e-11   4.68621e-09 DIIS
   @RHF iter  14:  -423.84903833534929   -7.38964e-13   1.50354e-09 DIIS
   @RHF iter  15:  -423.84903833535191   -2.61480e-12   4.21758e-10 DIIS
   @RHF iter  16:  -423.84903833535105    8.52651e-13   1.18464e-10 DIIS
   @RHF iter  17:  -423.84903833534969    1.36424e-12   4.81171e-11 DIIS
  Energy and wave function converged.


  ==> Post-Iterations <==

    Orbital Energies [Eh]
    ---------------------

    Doubly Occupied:                                                      

       1A    -20.547035     2A    -11.277168     3A    -11.242104  
       4A    -11.238576     5A    -11.238253     6A    -11.233419  
       7A    -11.232919     8A    -11.232400     9A    -11.230214  
      10A    -11.222559    11A     -1.346023    12A     -1.157096  
      13A     -1.049843    14A     -1.014637    15A     -1.005251  
      16A     -0.935020    17A     -0.834077    18A     -0.828189  
      19A     -0.798613    20A     -0.696400    21A     -0.686026  
      22A     -0.640375    23A     -0.635409    24A     -0.632509  
      25A     -0.585662    26A     -0.581440    27A     -0.567785  
      28A     -0.563640    29A     -0.537821    30A     -0.534326  
      31A     -0.522351    32A     -0.491069    33A     -0.488870  
      34A     -0.485016    35A     -0.474577    36A     -0.433712  
      37A     -0.335110    38A     -0.325648  

    Virtual:                                                              

      39A      0.130950    40A      0.139679    41A      0.167022  
      42A      0.189155    43A      0.205305    44A      0.209621  
      45A      0.218957    46A      0.230643    47A      0.242466  
      48A      0.259765    49A      0.264765    50A      0.268439  
      51A      0.280056    52A      0.286744    53A      0.319090  
      54A      0.344901    55A      0.365291    56A      0.373512  
      57A      0.388548    58A      0.412916    59A      0.452368  
      60A      0.470173    61A      0.478932    62A      0.503061  
      63A      0.560393    64A      0.591887    65A      0.602013  
      66A      0.625330    67A      0.648897    68A      0.660620  
      69A      0.684752    70A      0.689152    71A      0.699676  
      72A      0.714293    73A      0.724690    74A      0.738535  
      75A      0.739282    76A      0.747352    77A      0.754262  
      78A      0.761413    79A      0.768143    80A      0.781488  
      81A      0.793811    82A      0.805244    83A      0.838677  
      84A      0.846968    85A      0.864925    86A      0.870430  
      87A      0.873943    88A      0.883384    89A      0.893593  
      90A      0.896316    91A      0.898223    92A      0.906588  
      93A      0.917217    94A      0.924002    95A      0.932208  
      96A      0.940128    97A      0.960942    98A      0.980487  
      99A      0.994633   100A      1.024575   101A      1.052199  
     102A      1.105406   103A      1.122043   104A      1.143494  
     105A      1.148247   106A      1.157339   107A      1.184130  
     108A      1.189953   109A      1.204793   110A      1.222020  
     111A      1.244548   112A      1.252583   113A      1.256958  
     114A      1.275851   115A      1.295934   116A      1.304728  
     117A      1.321724   118A      1.325970   119A      1.329740  
     120A      1.413774   121A      1.434866   122A      1.479009  
     123A      1.504811   124A      1.530126   125A      1.536194  
     126A      1.550230   127A      1.559685   128A      1.610592  
     129A      1.630475   130A      1.674934   131A      1.683112  
     132A      1.685916   133A      1.734526   134A      1.735555  
     135A      1.756249   136A      1.789696   137A      1.794270  
     138A      1.816918   139A      1.848685   140A      1.858233  
     141A      1.885903   142A      1.890140   143A      1.893761  
     144A      1.896824   145A      1.907062   146A      1.915069  
     147A      1.917761   148A      1.920820   149A      1.939027  
     150A      1.946597   151A      1.960414   152A      1.966207  
     153A      1.977401   154A      1.982137   155A      2.000794  
     156A      2.003752   157A      2.025125   158A      2.033248  
     159A      2.051997   160A      2.073799   161A      2.108285  
     162A      2.111840   163A      2.126962   164A      2.165123  
     165A      2.172734   166A      2.178092   167A      2.199974  
     168A      2.209722   169A      2.243306   170A      2.248662  
     171A      2.270972   172A      2.286505   173A      2.294023  
     174A      2.298346   175A      2.319644   176A      2.333385  
     177A      2.359268   178A      2.450184   179A      2.474744  
     180A      2.480799   181A      2.498906   182A      2.524435  
     183A      2.532565   184A      2.533681   185A      2.580353  
     186A      2.636663   187A      2.734723   188A      2.753604  
     189A      2.754897   190A      2.771885   191A      2.773666  
     192A      2.800271   193A      2.805365   194A      2.816747  
     195A      2.845429   196A      2.870073   197A      2.891872  
     198A      2.942870   199A      2.981603   200A      3.011650  
     201A      3.032005   202A      3.161294   203A      3.209385  
     204A      3.305508   205A      3.322303   206A      3.405623  
     207A      3.459089   208A      3.620593   209A      3.976607  
     210A      4.106831  

    Final Occupation by Irrep:
              A 
    DOCC [    38 ]

  @RHF Final Energy:  -423.84903833534969

   => Energetics <=

    Nuclear Repulsion Energy =            470.8818656333461377
    One-Electron Energy =               -1507.6995272469662268
    Two-Electron Energy =                 612.9686232782704565
    Total Energy =                       -423.8490383353497464

Computation Completed


Properties will be evaluated at   0.000000,   0.000000,   0.000000 [a0]

Properties computed using the SCF density matrix

  Nuclear Dipole Moment: [e a0]
     X:    -0.6802      Y:     4.8772      Z:     1.1096

  Electronic Dipole Moment: [e a0]
     X:     0.0866      Y:    -5.4322      Z:    -1.0250

  Dipole Moment: [e a0]
     X:    -0.5936      Y:    -0.5549      Z:     0.0845     Total:     0.8170

  Dipole Moment: [D]
     X:    -1.5088      Y:    -1.4105      Z:     0.2149     Total:     2.0766


*** tstop() called on ds3 at Mon Apr 27 22:26:12 2020
Module time:
	user time   =      77.82 seconds =       1.30 minutes
	system time =      38.42 seconds =       0.64 minutes
	total time  =        122 seconds =       2.03 minutes
Total time:
	user time   =      77.82 seconds =       1.30 minutes
	system time =      38.42 seconds =       0.64 minutes
	total time  =        122 seconds =       2.03 minutes
                                     G D M A

                                 by Anthony Stone

                           version 2.2.06, 22 June 2011

               Distributed Multipoles from Gaussian wavefunctions


Starting at 22:26:12 on 27 Apr 2020 


Using SCF density matrix from file ./SSI/SSI-127PHE-133SER-1-dimer.test.11913.fchk


                         Distributed Multipole Analysis

Standard DMA

Positions and radii in angstrom
Multipole moments in atomic units, ea_0^k for rank k

C          x = -3.867256  y = -1.591822  z = -0.051417 angstrom
           Maximum rank =  0   Radius =  0.650 angstrom
                   Q00  =  -0.205980

C          x = -0.326256  y = -0.354822  z =  0.496583 angstrom
           Maximum rank =  0   Radius =  0.650 angstrom
                   Q00  =  -0.016329

C          x =  0.355744  y = -0.996822  z = -0.532417 angstrom
           Maximum rank =  0   Radius =  0.650 angstrom
                   Q00  =  -0.091258

C          x = -1.697256  y = -0.545822  z =  0.658583 angstrom
           Maximum rank =  0   Radius =  0.650 angstrom
                   Q00  =  -0.086724

C          x = -2.390256  y = -1.398822  z = -0.194417 angstrom
           Maximum rank =  0   Radius =  0.650 angstrom
                   Q00  =  -0.090771

C          x = -0.334256  y = -1.840822  z = -1.387417 angstrom
           Maximum rank =  0   Radius =  0.650 angstrom
                   Q00  =  -0.075465

C          x = -1.703256  y = -2.041822  z = -1.218417 angstrom
           Maximum rank =  0   Radius =  0.650 angstrom
                   Q00  =  -0.033153

H          x =  0.206744  y =  0.289178  z =  1.180583 angstrom
           Maximum rank =  0   Radius =  0.325 angstrom
                   Q00  =   0.061415

H          x =  1.415744  y = -0.850822  z = -0.650417 angstrom
           Maximum rank =  0   Radius =  0.325 angstrom
                   Q00  =   0.057311

H          x = -2.214256  y = -0.041822  z =  1.458583 angstrom
           Maximum rank =  0   Radius =  0.325 angstrom
                   Q00  =   0.058161

H          x =  0.189744  y = -2.345822  z = -2.187417 angstrom
           Maximum rank =  0   Radius =  0.325 angstrom
                   Q00  =   0.064901

H          x = -4.214256  y = -1.118822  z =  0.866583 angstrom
           Maximum rank =  0   Radius =  0.325 angstrom
                   Q00  =   0.096792

H          x = -4.062256  y = -2.656822  z =  0.037583 angstrom
           Maximum rank =  0   Radius =  0.325 angstrom
                   Q00  =   0.101821

H          x = -2.227256  y = -2.707822  z = -1.888417 angstrom
           Maximum rank =  0   Radius =  0.325 angstrom
                   Q00  =   0.055571

H          x = -4.432452  y = -1.181031  z = -0.901007 angstrom
           Maximum rank =  0   Radius =  0.325 angstrom
                   Q00  =   0.103732

C          x =  2.616744  y =  2.070178  z =  0.582583 angstrom
           Maximum rank =  0   Radius =  0.650 angstrom
                   Q00  =   0.084396

C          x =  2.066744  y =  3.485178  z =  0.349583 angstrom
           Maximum rank =  0   Radius =  0.650 angstrom
                   Q00  =  -0.241439

O          x =  4.007744  y =  2.085178  z =  0.898583 angstrom
           Maximum rank =  0   Radius =  0.650 angstrom
                   Q00  =  -0.594323

H          x =  2.087744  y =  1.612178  z =  1.418583 angstrom
           Maximum rank =  0   Radius =  0.325 angstrom
                   Q00  =   0.041133

H          x =  2.446744  y =  1.460178  z = -0.307417 angstrom
           Maximum rank =  0   Radius =  0.325 angstrom
                   Q00  =   0.046724

H          x =  2.365744  y =  4.114178  z =  1.189583 angstrom
           Maximum rank =  0   Radius =  0.325 angstrom
                   Q00  =   0.091511

H          x =  4.251744  y =  1.220178  z =  1.261583 angstrom
           Maximum rank =  0   Radius =  0.325 angstrom
                   Q00  =   0.391182

H          x =  0.969626  y =  3.467838  z =  0.271913 angstrom
           Maximum rank =  0   Radius =  0.325 angstrom
                   Q00  =   0.088749

H          x =  2.470552  y =  3.931108  z = -0.571327 angstrom
           Maximum rank =  0   Radius =  0.325 angstrom
                   Q00  =   0.092041

Total multipoles referred to origin at
           x =   0.000000,  y =    0.000000,  z =    0.000000 angstrom
                   Q00  =  -0.000000

Finished at 22:26:12 on 27 Apr 2020 

  DMA results are available in the Python driver through the
	  variable('DMA DISTRIBUTED MULTIPOLES')
  and
	  variable('DMA TOTAL MULTIPOLES')
  commands.


    Psi4 stopped on: Monday, 27 April 2020 10:26PM
    Psi4 wall time for execution: 0:02:01.90

*** Psi4 exiting successfully. Buy a developer a beer!
