
    -----------------------------------------------------------------------
          Psi4: An Open-Source Ab Initio Electronic Structure Package
                               Psi4 1.3.2 release

                         Git: Rev {HEAD} ecbda83 


    R. M. Parrish, L. A. Burns, D. G. A. Smith, A. C. Simmonett,
    A. E. DePrince III, E. G. Hohenstein, U. Bozkaya, A. Yu. Sokolov,
    R. Di Remigio, R. M. Richard, J. F. Gonthier, A. M. James,
    H. R. McAlexander, A. Kumar, M. Saitow, X. Wang, B. P. Pritchard,
    P. Verma, H. F. Schaefer III, K. Patkowski, R. A. King, E. F. Valeev,
    F. A. Evangelista, J. M. Turney, T. D. Crawford, and C. D. Sherrill,
    J. Chem. Theory Comput. 13(7) pp 3185--3197 (2017).
    (doi: 10.1021/acs.jctc.7b00174)


                         Additional Contributions by
    P. Kraus, H. Kruse, M. H. Lechner, M. C. Schieber, R. A. Shaw,
    A. Alenaizan, R. Galvelis, Z. L. Glick, S. Lehtola, and J. P. Misiewicz

    -----------------------------------------------------------------------


    Psi4 started on: Monday, 27 April 2020 12:56PM

    Process ID: 4711
    Host:       ds3
    PSIDATADIR: /theoryfs2/ds/metcalf/miniconda2/envs/tf2gpu/share/psi4
    Memory:     500.0 MiB
    Threads:    1
    
  ==> Input File <==

--------------------------------------------------------------------------
import numpy as np
set {scf_type pk
basis cc-pvdz
d_convergence 10
gdma_switch   0
gdma_limit    0
gdma_origin   [ 0.0,  0.0,  0.0 ]
}
molecule test {
    units Angstrom
    0 1
    --
    0 1
    C               -0.725298480235813    -2.022861575949037    -0.073368699215022
    C                0.277701519764187    -3.088861575949037    -0.511368699215022
    H               -0.669298480235813    -1.221861575949037    -0.796368699215022
    H               -1.756298480235813    -2.366861575949037    -0.139368699215022
    H               -0.499298480235813    -1.640861575949037     0.918631300784978
    H               -0.016298480235813    -3.422861575949038    -1.507368699215022
    H                0.258413519764187    -3.950396575949037     0.172291300784978
    H                1.288391519764187    -2.659389575949037    -0.575078699215022
    C                0.358701519764187     1.225138424050963     0.494631300784978
    C                0.353701519764187     2.670138424050962     0.982631300784978
    O               -0.267298480235813     1.120138424050963    -0.770368699215022
    H                1.380701519764187     0.848138424050963     0.434631300784978
    H               -0.196298480235813     0.617138424050963     1.209631300784978
    H               -0.683298480235813     3.009138424050962     0.983631300784978
    H                0.336701519764187     1.486138424050963    -1.439368699215022
    H                0.941511519764187     3.315068424050962     0.312891300784978
    H                0.704291519764187     2.693218424050963     2.025011300784978

}
e, wfn = energy('scf', return_wfn=True)
gdma(wfn)
dmavals = variable('DMA DISTRIBUTED MULTIPOLES')
charges = np.array(dmavals)
print(charges)
np.save('SSI-005VAL-039SER-1-dimer.npy', np.array(charges))--------------------------------------------------------------------------

*** tstart() called on ds3
*** at Mon Apr 27 12:56:38 2020

   => Loading Basis Set <=

    Name: CC-PVDZ
    Role: ORBITAL
    Keyword: BASIS
    atoms 1-2, 9-10  entry C          line   138 file /theoryfs2/ds/metcalf/miniconda2/envs/tf2gpu/share/psi4/basis/cc-pvdz.gbs 
    atoms 3-8, 12-17 entry H          line    22 file /theoryfs2/ds/metcalf/miniconda2/envs/tf2gpu/share/psi4/basis/cc-pvdz.gbs 
    atoms 11         entry O          line   198 file /theoryfs2/ds/metcalf/miniconda2/envs/tf2gpu/share/psi4/basis/cc-pvdz.gbs 


         ---------------------------------------------------------
                                   SCF
               by Justin Turney, Rob Parrish, Andy Simmonett
                          and Daniel G. A. Smith
                              RHF Reference
                        1 Threads,    500 MiB Core
         ---------------------------------------------------------

  ==> Geometry <==

    Molecular point group: c1
    Full point group: C1

    Geometry (in Angstrom), charge = 0, multiplicity = 1:

       Center              X                  Y                   Z               Mass       
    ------------   -----------------  -----------------  -----------------  -----------------
         C           -0.725298480236    -2.022861575949    -0.073368699215    12.000000000000
         C            0.277701519764    -3.088861575949    -0.511368699215    12.000000000000
         H           -0.669298480236    -1.221861575949    -0.796368699215     1.007825032230
         H           -1.756298480236    -2.366861575949    -0.139368699215     1.007825032230
         H           -0.499298480236    -1.640861575949     0.918631300785     1.007825032230
         H           -0.016298480236    -3.422861575949    -1.507368699215     1.007825032230
         H            0.258413519764    -3.950396575949     0.172291300785     1.007825032230
         H            1.288391519764    -2.659389575949    -0.575078699215     1.007825032230
         C            0.358701519764     1.225138424051     0.494631300785    12.000000000000
         C            0.353701519764     2.670138424051     0.982631300785    12.000000000000
         O           -0.267298480236     1.120138424051    -0.770368699215    15.994914619570
         H            1.380701519764     0.848138424051     0.434631300785     1.007825032230
         H           -0.196298480236     0.617138424051     1.209631300785     1.007825032230
         H           -0.683298480236     3.009138424051     0.983631300785     1.007825032230
         H            0.336701519764     1.486138424051    -1.439368699215     1.007825032230
         H            0.941511519764     3.315068424051     0.312891300785     1.007825032230
         H            0.704291519764     2.693218424051     2.025011300785     1.007825032230

  Running in c1 symmetry.

  Rotational constants: A =      0.34770  B =      0.04293  C =      0.04146 [cm^-1]
  Rotational constants: A =  10423.77627  B =   1286.98303  C =   1243.07432 [MHz]
  Nuclear repulsion =  182.572097742584788

  Charge       = 0
  Multiplicity = 1
  Electrons    = 44
  Nalpha       = 22
  Nbeta        = 22

  ==> Algorithm <==

  SCF Algorithm Type is PK.
  DIIS enabled.
  MOM disabled.
  Fractional occupation disabled.
  Guess Type is SAD.
  Energy threshold   = 1.00e-06
  Density threshold  = 1.00e-10
  Integral threshold = 0.00e+00

  ==> Primary Basis <==

  Basis Set: CC-PVDZ
    Blend: CC-PVDZ
    Number of shells: 66
    Number of basis function: 130
    Number of Cartesian functions: 135
    Spherical Harmonics?: true
    Max angular momentum: 2

  ==> Pre-Iterations <==

   -------------------------------------------------------
    Irrep   Nso     Nmo     Nalpha   Nbeta   Ndocc  Nsocc
   -------------------------------------------------------
     A        130     130       0       0       0       0
   -------------------------------------------------------
    Total     130     130      22      22      22       0
   -------------------------------------------------------

  ==> Integral Setup <==

  Using integral reordering PK algorithm.
  Sizing the integral batches needed.
  Building batch lookup table.
   Calculation information:
      Number of atoms:                  17
      Number of AO shells:              66
      Number of primitives:            170
      Number of atomic orbitals:       135
      Number of basis functions:       130

      Integral cutoff                 1.00e-12
      Number of threads:                 1

	Batch   1 pq = [       0,    8515] index = [             0,36256870] size =     36256870
  Task number: 4
  Buffer size: 11059200
  Buffer per thread: 2
  We computed 2039451 shell quartets total.
  Whereas there are 2445366 unique shell quartets.

  ==> DiskJK: Disk-Based J/K Matrices <==

    J tasked:                  Yes
    K tasked:                  Yes
    wK tasked:                  No
    Memory [MiB]:              375
    Schwarz Cutoff:          1E-12

    OpenMP threads:              1

  Minimum eigenvalue in the overlap matrix is 5.7156383341E-03.
  Using Symmetric Orthogonalization.

  SCF Guess: Superposition of Atomic Densities via on-the-fly atomic UHF.

  ==> Iterations <==

                        Total Energy        Delta E     RMS |[F,P]|

   @RHF iter SAD:  -232.11201502102438   -2.32112e+02   0.00000e+00 
   @RHF iter   1:  -233.14028039048583   -1.02827e+00   4.19408e-03 DIIS
   @RHF iter   2:  -233.29060862701340   -1.50328e-01   1.91894e-03 DIIS
   @RHF iter   3:  -233.31848965435273   -2.78810e-02   3.85246e-04 DIIS
   @RHF iter   4:  -233.32057565537832   -2.08600e-03   1.28132e-04 DIIS
   @RHF iter   5:  -233.32072699588466   -1.51341e-04   2.55948e-05 DIIS
   @RHF iter   6:  -233.32073599002780   -8.99414e-06   4.91201e-06 DIIS
   @RHF iter   7:  -233.32073646263629   -4.72608e-07   1.19355e-06 DIIS
   @RHF iter   8:  -233.32073649201226   -2.93760e-08   4.06728e-07 DIIS
   @RHF iter   9:  -233.32073649543270   -3.42044e-09   1.10362e-07 DIIS
   @RHF iter  10:  -233.32073649572789   -2.95188e-10   2.39131e-08 DIIS
   @RHF iter  11:  -233.32073649574147   -1.35856e-11   6.44215e-09 DIIS
   @RHF iter  12:  -233.32073649574301   -1.53477e-12   1.90977e-09 DIIS
   @RHF iter  13:  -233.32073649574153    1.47793e-12   4.92675e-10 DIIS
   @RHF iter  14:  -233.32073649574198   -4.54747e-13   1.61700e-10 DIIS
   @RHF iter  15:  -233.32073649574212   -1.42109e-13   4.56470e-11 DIIS
  Energy and wave function converged.


  ==> Post-Iterations <==

    Orbital Energies [Eh]
    ---------------------

    Doubly Occupied:                                                      

       1A    -20.553654     2A    -11.276318     3A    -11.223716  
       4A    -11.211538     5A    -11.199153     6A     -1.355738  
       7A     -1.010043     8A     -1.008177     9A     -0.842327  
      10A     -0.826250    11A     -0.688785    12A     -0.628226  
      13A     -0.597782    14A     -0.591468    15A     -0.580141  
      16A     -0.541872    17A     -0.527597    18A     -0.490721  
      19A     -0.484621    20A     -0.471877    21A     -0.468032  
      22A     -0.432737  

    Virtual:                                                              

      23A      0.170373    24A      0.197225    25A      0.209985  
      26A      0.233078    27A      0.239353    28A      0.263368  
      29A      0.264513    30A      0.270332    31A      0.283210  
      32A      0.296179    33A      0.324196    34A      0.340531  
      35A      0.386608    36A      0.395309    37A      0.410092  
      38A      0.577806    39A      0.597773    40A      0.611792  
      41A      0.621070    42A      0.636016    43A      0.657101  
      44A      0.687610    45A      0.737144    46A      0.746133  
      47A      0.769073    48A      0.841796    49A      0.859565  
      50A      0.875114    51A      0.881644    52A      0.888515  
      53A      0.893833    54A      0.900541    55A      0.904489  
      56A      0.912252    57A      0.932191    58A      0.947155  
      59A      0.952620    60A      0.967432    61A      1.000164  
      62A      1.125397    63A      1.128970    64A      1.138752  
      65A      1.168649    66A      1.215692    67A      1.244434  
      68A      1.284988    69A      1.349448    70A      1.383859  
      71A      1.469609    72A      1.487918    73A      1.496380  
      74A      1.544839    75A      1.592729    76A      1.620762  
      77A      1.649305    78A      1.670585    79A      1.688323  
      80A      1.739000    81A      1.760336    82A      1.843366  
      83A      1.864162    84A      1.879437    85A      1.883973  
      86A      1.895963    87A      1.916040    88A      1.944439  
      89A      1.948971    90A      1.952855    91A      1.964892  
      92A      1.970837    93A      1.977551    94A      1.980065  
      95A      2.008519    96A      2.040196    97A      2.044286  
      98A      2.107239    99A      2.114749   100A      2.139860  
     101A      2.177570   102A      2.246624   103A      2.302587  
     104A      2.312690   105A      2.341220   106A      2.363965  
     107A      2.422573   108A      2.462172   109A      2.498512  
     110A      2.502919   111A      2.544929   112A      2.556341  
     113A      2.573182   114A      2.597292   115A      2.750502  
     116A      2.760991   117A      2.772457   118A      2.801799  
     119A      2.817312   120A      2.861348   121A      2.871706  
     122A      2.881052   123A      2.925943   124A      2.980723  
     125A      3.000470   126A      3.322574   127A      3.395531  
     128A      3.470706   129A      3.635371   130A      4.090074  

    Final Occupation by Irrep:
              A 
    DOCC [    22 ]

  @RHF Final Energy:  -233.32073649574212

   => Energetics <=

    Nuclear Repulsion Energy =            182.5720977425847877
    One-Electron Energy =                -677.7641228821743198
    Two-Electron Energy =                 261.8712886438473788
    Total Energy =                       -233.3207364957421532

Computation Completed


Properties will be evaluated at   0.000000,   0.000000,   0.000000 [a0]

Properties computed using the SCF density matrix

  Nuclear Dipole Moment: [e a0]
     X:     1.0198      Y:    -3.0821      Z:     1.4955

  Electronic Dipole Moment: [e a0]
     X:    -0.4453      Y:     3.4954      Z:    -1.4316

  Dipole Moment: [e a0]
     X:     0.5745      Y:     0.4133      Z:     0.0638     Total:     0.7106

  Dipole Moment: [D]
     X:     1.4603      Y:     1.0506      Z:     0.1622     Total:     1.8062


*** tstop() called on ds3 at Mon Apr 27 12:57:02 2020
Module time:
	user time   =      17.11 seconds =       0.29 minutes
	system time =       7.55 seconds =       0.13 minutes
	total time  =         24 seconds =       0.40 minutes
Total time:
	user time   =      17.11 seconds =       0.29 minutes
	system time =       7.55 seconds =       0.13 minutes
	total time  =         24 seconds =       0.40 minutes
                                     G D M A

                                 by Anthony Stone

                           version 2.2.06, 22 June 2011

               Distributed Multipoles from Gaussian wavefunctions


Starting at 12:57:2 on 27 Apr 2020  


Using SCF density matrix from file ./SSI/SSI-005VAL-039SER-1-dimer.test.4711.fchk


                         Distributed Multipole Analysis

Standard DMA

Positions and radii in angstrom
Multipole moments in atomic units, ea_0^k for rank k

C          x = -0.725298  y = -2.022862  z = -0.073369 angstrom
           Maximum rank =  0   Radius =  0.650 angstrom
                   Q00  =  -0.240571

C          x =  0.277702  y = -3.088862  z = -0.511369 angstrom
           Maximum rank =  0   Radius =  0.650 angstrom
                   Q00  =  -0.233162

H          x = -0.669298  y = -1.221862  z = -0.796369 angstrom
           Maximum rank =  0   Radius =  0.325 angstrom
                   Q00  =   0.094026

H          x = -1.756298  y = -2.366862  z = -0.139369 angstrom
           Maximum rank =  0   Radius =  0.325 angstrom
                   Q00  =   0.074485

H          x = -0.499298  y = -1.640862  z =  0.918631 angstrom
           Maximum rank =  0   Radius =  0.325 angstrom
                   Q00  =   0.068310

H          x = -0.016298  y = -3.422862  z = -1.507369 angstrom
           Maximum rank =  0   Radius =  0.325 angstrom
                   Q00  =   0.075531

H          x =  0.258414  y = -3.950397  z =  0.172291 angstrom
           Maximum rank =  0   Radius =  0.325 angstrom
                   Q00  =   0.072325

H          x =  1.288392  y = -2.659390  z = -0.575079 angstrom
           Maximum rank =  0   Radius =  0.325 angstrom
                   Q00  =   0.073117

C          x =  0.358702  y =  1.225138  z =  0.494631 angstrom
           Maximum rank =  0   Radius =  0.650 angstrom
                   Q00  =   0.079806

C          x =  0.353702  y =  2.670138  z =  0.982631 angstrom
           Maximum rank =  0   Radius =  0.650 angstrom
                   Q00  =  -0.239463

O          x = -0.267298  y =  1.120138  z = -0.770369 angstrom
           Maximum rank =  0   Radius =  0.650 angstrom
                   Q00  =  -0.577120

H          x =  1.380702  y =  0.848138  z =  0.434631 angstrom
           Maximum rank =  0   Radius =  0.325 angstrom
                   Q00  =   0.033069

H          x = -0.196298  y =  0.617138  z =  1.209631 angstrom
           Maximum rank =  0   Radius =  0.325 angstrom
                   Q00  =   0.087416

H          x = -0.683298  y =  3.009138  z =  0.983631 angstrom
           Maximum rank =  0   Radius =  0.325 angstrom
                   Q00  =   0.092080

H          x =  0.336702  y =  1.486138  z = -1.439369 angstrom
           Maximum rank =  0   Radius =  0.325 angstrom
                   Q00  =   0.381955

H          x =  0.941512  y =  3.315068  z =  0.312891 angstrom
           Maximum rank =  0   Radius =  0.325 angstrom
                   Q00  =   0.076980

H          x =  0.704292  y =  2.693218  z =  2.025011 angstrom
           Maximum rank =  0   Radius =  0.325 angstrom
                   Q00  =   0.081216

Total multipoles referred to origin at
           x =   0.000000,  y =    0.000000,  z =    0.000000 angstrom
                   Q00  =  -0.000000

Finished at 12:57:2 on 27 Apr 2020  

  DMA results are available in the Python driver through the
	  variable('DMA DISTRIBUTED MULTIPOLES')
  and
	  variable('DMA TOTAL MULTIPOLES')
  commands.


    Psi4 stopped on: Monday, 27 April 2020 12:57PM
    Psi4 wall time for execution: 0:00:24.37

*** Psi4 exiting successfully. Buy a developer a beer!
