
    -----------------------------------------------------------------------
          Psi4: An Open-Source Ab Initio Electronic Structure Package
                               Psi4 1.3.2 release

                         Git: Rev {HEAD} ecbda83 


    R. M. Parrish, L. A. Burns, D. G. A. Smith, A. C. Simmonett,
    A. E. DePrince III, E. G. Hohenstein, U. Bozkaya, A. Yu. Sokolov,
    R. Di Remigio, R. M. Richard, J. F. Gonthier, A. M. James,
    H. R. McAlexander, A. Kumar, M. Saitow, X. Wang, B. P. Pritchard,
    P. Verma, H. F. Schaefer III, K. Patkowski, R. A. King, E. F. Valeev,
    F. A. Evangelista, J. M. Turney, T. D. Crawford, and C. D. Sherrill,
    J. Chem. Theory Comput. 13(7) pp 3185--3197 (2017).
    (doi: 10.1021/acs.jctc.7b00174)


                         Additional Contributions by
    P. Kraus, H. Kruse, M. H. Lechner, M. C. Schieber, R. A. Shaw,
    A. Alenaizan, R. Galvelis, Z. L. Glick, S. Lehtola, and J. P. Misiewicz

    -----------------------------------------------------------------------


    Psi4 started on: Tuesday, 28 April 2020 02:39PM

    Process ID: 6939
    Host:       ds3
    PSIDATADIR: /theoryfs2/ds/metcalf/miniconda2/envs/tf2gpu/share/psi4
    Memory:     500.0 MiB
    Threads:    1
    
  ==> Input File <==

--------------------------------------------------------------------------
import numpy as np
set {scf_type pk
basis cc-pvdz
d_convergence 10
gdma_switch   0
gdma_limit    0
gdma_origin   [ 0.0,  0.0,  0.0 ]
}
molecule test {
    units Angstrom
    0 1
    --
    0 1
    C                0.177551788345897     0.618704358868101     1.879475338717631
    C                1.016551788345897     1.731704358868100     2.472475338717631
    H               -0.885448211654103     0.861704358868101     1.952475338717631
    H                0.447551788345897     0.484704358868101     0.832475338717630
    H                0.366551788345897    -0.312295641131899     2.415475338717631
    H                2.066551788345897     1.492704358868101     2.300475338717630
    H                0.813517788345897     1.830944358868101     3.549015338717631
    H                0.794528788345897     2.680944358868100     1.962915338717631
    C               -0.409448211654103    -1.184295641131899    -1.437524661282370
    C               -0.784448211654103    -1.157295641131899    -2.911524661282369
    H               -0.681448211654103    -0.237295641131899    -0.974524661282369
    H               -0.956448211654103    -1.980295641131900    -0.945524661282369
    H                0.653551788345897    -1.384295641131899    -1.304524661282370
    H               -0.427448211654103    -2.086295641131900    -3.355524661282370
    H               -0.315995211654103    -0.312055641131899    -3.437004661282369
    H               -1.877932211654103    -1.143455641131899    -3.030274661282369

}
e, wfn = energy('scf', return_wfn=True)
gdma(wfn)
dmavals = variable('DMA DISTRIBUTED MULTIPOLES')
charges = np.array(dmavals)
print(charges)
np.save('SSI-118ALA-160VAL-1-dimer.npy', np.array(charges))--------------------------------------------------------------------------

*** tstart() called on ds3
*** at Tue Apr 28 14:39:27 2020

   => Loading Basis Set <=

    Name: CC-PVDZ
    Role: ORBITAL
    Keyword: BASIS
    atoms 1-2, 9-10  entry C          line   138 file /theoryfs2/ds/metcalf/miniconda2/envs/tf2gpu/share/psi4/basis/cc-pvdz.gbs 
    atoms 3-8, 11-16 entry H          line    22 file /theoryfs2/ds/metcalf/miniconda2/envs/tf2gpu/share/psi4/basis/cc-pvdz.gbs 


         ---------------------------------------------------------
                                   SCF
               by Justin Turney, Rob Parrish, Andy Simmonett
                          and Daniel G. A. Smith
                              RHF Reference
                        1 Threads,    500 MiB Core
         ---------------------------------------------------------

  ==> Geometry <==

    Molecular point group: c1
    Full point group: C1

    Geometry (in Angstrom), charge = 0, multiplicity = 1:

       Center              X                  Y                   Z               Mass       
    ------------   -----------------  -----------------  -----------------  -----------------
         C            0.177551788346     0.618704358868     1.879475338718    12.000000000000
         C            1.016551788346     1.731704358868     2.472475338718    12.000000000000
         H           -0.885448211654     0.861704358868     1.952475338718     1.007825032230
         H            0.447551788346     0.484704358868     0.832475338718     1.007825032230
         H            0.366551788346    -0.312295641132     2.415475338718     1.007825032230
         H            2.066551788346     1.492704358868     2.300475338718     1.007825032230
         H            0.813517788346     1.830944358868     3.549015338718     1.007825032230
         H            0.794528788346     2.680944358868     1.962915338718     1.007825032230
         C           -0.409448211654    -1.184295641132    -1.437524661282    12.000000000000
         C           -0.784448211654    -1.157295641132    -2.911524661282    12.000000000000
         H           -0.681448211654    -0.237295641132    -0.974524661282     1.007825032230
         H           -0.956448211654    -1.980295641132    -0.945524661282     1.007825032230
         H            0.653551788346    -1.384295641132    -1.304524661282     1.007825032230
         H           -0.427448211654    -2.086295641132    -3.355524661282     1.007825032230
         H           -0.315995211654    -0.312055641132    -3.437004661282     1.007825032230
         H           -1.877932211654    -1.143455641132    -3.030274661282     1.007825032230

  Running in c1 symmetry.

  Rotational constants: A =      0.72170  B =      0.03932  C =      0.03860 [cm^-1]
  Rotational constants: A =  21635.97926  B =   1178.68702  C =   1157.19371 [MHz]
  Nuclear repulsion =  119.586831167600238

  Charge       = 0
  Multiplicity = 1
  Electrons    = 36
  Nalpha       = 18
  Nbeta        = 18

  ==> Algorithm <==

  SCF Algorithm Type is PK.
  DIIS enabled.
  MOM disabled.
  Fractional occupation disabled.
  Guess Type is SAD.
  Energy threshold   = 1.00e-06
  Density threshold  = 1.00e-10
  Integral threshold = 0.00e+00

  ==> Primary Basis <==

  Basis Set: CC-PVDZ
    Blend: CC-PVDZ
    Number of shells: 60
    Number of basis function: 116
    Number of Cartesian functions: 120
    Spherical Harmonics?: true
    Max angular momentum: 2

  ==> Pre-Iterations <==

   -------------------------------------------------------
    Irrep   Nso     Nmo     Nalpha   Nbeta   Ndocc  Nsocc
   -------------------------------------------------------
     A        116     116       0       0       0       0
   -------------------------------------------------------
    Total     116     116      18      18      18       0
   -------------------------------------------------------

  ==> Integral Setup <==

  Using integral reordering PK algorithm.
  Sizing the integral batches needed.
  Building batch lookup table.
   Calculation information:
      Number of atoms:                  16
      Number of AO shells:              60
      Number of primitives:            148
      Number of atomic orbitals:       120
      Number of basis functions:       116

      Integral cutoff                 1.00e-12
      Number of threads:                 1

	Batch   1 pq = [       0,    6786] index = [             0,23028291] size =     23028291
  Task number: 3
  Buffer size: 11059200
  Buffer per thread: 2
  We computed 1314910 shell quartets total.
  Whereas there are 1675365 unique shell quartets.

  ==> DiskJK: Disk-Based J/K Matrices <==

    J tasked:                  Yes
    K tasked:                  Yes
    wK tasked:                  No
    Memory [MiB]:              375
    Schwarz Cutoff:          1E-12

    OpenMP threads:              1

  Minimum eigenvalue in the overlap matrix is 6.1394632701E-03.
  Using Symmetric Orthogonalization.

  SCF Guess: Superposition of Atomic Densities via on-the-fly atomic UHF.

  ==> Iterations <==

                        Total Energy        Delta E     RMS |[F,P]|

   @RHF iter SAD:  -157.38648815691312   -1.57386e+02   0.00000e+00 
   @RHF iter   1:  -158.30477794066286   -9.18290e-01   4.24820e-03 DIIS
   @RHF iter   2:  -158.43967083903306   -1.34893e-01   1.81643e-03 DIIS
   @RHF iter   3:  -158.46356019957983   -2.38894e-02   3.51903e-04 DIIS
   @RHF iter   4:  -158.46541237017198   -1.85217e-03   3.94065e-05 DIIS
   @RHF iter   5:  -158.46543678433596   -2.44142e-05   7.05559e-06 DIIS
   @RHF iter   6:  -158.46543748302491   -6.98689e-07   1.40950e-06 DIIS
   @RHF iter   7:  -158.46543750099539   -1.79705e-08   3.11910e-07 DIIS
   @RHF iter   8:  -158.46543750192899   -9.33596e-10   3.59156e-08 DIIS
   @RHF iter   9:  -158.46543750194849   -1.94973e-11   6.23353e-09 DIIS
   @RHF iter  10:  -158.46543750194971   -1.22213e-12   1.97299e-09 DIIS
   @RHF iter  11:  -158.46543750194957    1.42109e-13   5.48240e-10 DIIS
   @RHF iter  12:  -158.46543750194985   -2.84217e-13   1.03733e-10 DIIS
   @RHF iter  13:  -158.46543750194959    2.55795e-13   2.01270e-11 DIIS
  Energy and wave function converged.


  ==> Post-Iterations <==

    Orbital Energies [Eh]
    ---------------------

    Doubly Occupied:                                                      

       1A    -11.218310     2A    -11.217411     3A    -11.214955  
       4A    -11.214244     5A     -1.021574     6A     -1.019681  
       7A     -0.838139     8A     -0.831549     9A     -0.604105  
      10A     -0.598957    11A     -0.598058    12A     -0.595702  
      13A     -0.506406    14A     -0.498635    15A     -0.490164  
      16A     -0.485211    17A     -0.482306    18A     -0.475602  

    Virtual:                                                              

      19A      0.177878    20A      0.194260    21A      0.225609  
      22A      0.240422    23A      0.248216    24A      0.256251  
      25A      0.260921    26A      0.276233    27A      0.282279  
      28A      0.290425    29A      0.297437    30A      0.320437  
      31A      0.377815    32A      0.415882    33A      0.568968  
      34A      0.597821    35A      0.600564    36A      0.604144  
      37A      0.608394    38A      0.651635    39A      0.670091  
      40A      0.679540    41A      0.702126    42A      0.760803  
      43A      0.837894    44A      0.885918    45A      0.888390  
      46A      0.892156    47A      0.893515    48A      0.896162  
      49A      0.900598    50A      0.904281    51A      0.909968  
      52A      0.916369    53A      0.927433    54A      0.938130  
      55A      0.974905    56A      0.996002    57A      1.123161  
      58A      1.127253    59A      1.136429    60A      1.155409  
      61A      1.228946    62A      1.250156    63A      1.469774  
      64A      1.480637    65A      1.482652    66A      1.490902  
      67A      1.575954    68A      1.583786    69A      1.678040  
      70A      1.680812    71A      1.692082    72A      1.698679  
      73A      1.850619    74A      1.860840    75A      1.867136  
      76A      1.876489    77A      1.895264    78A      1.924227  
      79A      1.936737    80A      1.938260    81A      1.943898  
      82A      1.950783    83A      1.953131    84A      1.954998  
      85A      1.967534    86A      1.975122    87A      1.986355  
      88A      2.030917    89A      2.094984    90A      2.107632  
      91A      2.121543    92A      2.127141    93A      2.294598  
      94A      2.307800    95A      2.310684    96A      2.331115  
      97A      2.445086    98A      2.458248    99A      2.461810  
     100A      2.486476   101A      2.556421   102A      2.569360  
     103A      2.575438   104A      2.585452   105A      2.755420  
     106A      2.764539   107A      2.782768   108A      2.800505  
     109A      2.841722   110A      2.854193   111A      2.860622  
     112A      2.861652   113A      2.942027   114A      2.943778  
     115A      2.960905   116A      2.986312  

    Final Occupation by Irrep:
              A 
    DOCC [    18 ]

  @RHF Final Energy:  -158.46543750194959

   => Energetics <=

    Nuclear Repulsion Energy =            119.5868311676002378
    One-Electron Energy =                -448.2825159730533073
    Two-Electron Energy =                 170.2302473035034893
    Total Energy =                       -158.4654375019495944

Computation Completed


Properties will be evaluated at   0.000000,   0.000000,   0.000000 [a0]

Properties computed using the SCF density matrix

  Nuclear Dipole Moment: [e a0]
     X:    -0.0023      Y:    -0.0984      Z:    -0.0324

  Electronic Dipole Moment: [e a0]
     X:     0.0014      Y:     0.0711      Z:     0.0244

  Dipole Moment: [e a0]
     X:    -0.0009      Y:    -0.0273      Z:    -0.0080     Total:     0.0285

  Dipole Moment: [D]
     X:    -0.0023      Y:    -0.0695      Z:    -0.0204     Total:     0.0724


*** tstop() called on ds3 at Tue Apr 28 14:39:37 2020
Module time:
	user time   =       7.63 seconds =       0.13 minutes
	system time =       3.28 seconds =       0.05 minutes
	total time  =         10 seconds =       0.17 minutes
Total time:
	user time   =       7.63 seconds =       0.13 minutes
	system time =       3.28 seconds =       0.05 minutes
	total time  =         10 seconds =       0.17 minutes
                                     G D M A

                                 by Anthony Stone

                           version 2.2.06, 22 June 2011

               Distributed Multipoles from Gaussian wavefunctions


Starting at 14:39:37 on 28 Apr 2020 


Using SCF density matrix from file ./SSI/SSI-118ALA-160VAL-1-dimer.test.6939.fchk


                         Distributed Multipole Analysis

Standard DMA

Positions and radii in angstrom
Multipole moments in atomic units, ea_0^k for rank k

C          x =  0.177552  y =  0.618704  z =  1.879475 angstrom
           Maximum rank =  0   Radius =  0.650 angstrom
                   Q00  =  -0.226815

C          x =  1.016552  y =  1.731704  z =  2.472475 angstrom
           Maximum rank =  0   Radius =  0.650 angstrom
                   Q00  =  -0.237227

H          x = -0.885448  y =  0.861704  z =  1.952475 angstrom
           Maximum rank =  0   Radius =  0.325 angstrom
                   Q00  =   0.075566

H          x =  0.447552  y =  0.484704  z =  0.832475 angstrom
           Maximum rank =  0   Radius =  0.325 angstrom
                   Q00  =   0.079978

H          x =  0.366552  y = -0.312296  z =  2.415475 angstrom
           Maximum rank =  0   Radius =  0.325 angstrom
                   Q00  =   0.077517

H          x =  2.066552  y =  1.492704  z =  2.300475 angstrom
           Maximum rank =  0   Radius =  0.325 angstrom
                   Q00  =   0.076640

H          x =  0.813518  y =  1.830944  z =  3.549015 angstrom
           Maximum rank =  0   Radius =  0.325 angstrom
                   Q00  =   0.077605

H          x =  0.794529  y =  2.680944  z =  1.962915 angstrom
           Maximum rank =  0   Radius =  0.325 angstrom
                   Q00  =   0.075806

C          x = -0.409448  y = -1.184296  z = -1.437525 angstrom
           Maximum rank =  0   Radius =  0.650 angstrom
                   Q00  =  -0.244147

C          x = -0.784448  y = -1.157296  z = -2.911525 angstrom
           Maximum rank =  0   Radius =  0.650 angstrom
                   Q00  =  -0.225173

H          x = -0.681448  y = -0.237296  z = -0.974525 angstrom
           Maximum rank =  0   Radius =  0.325 angstrom
                   Q00  =   0.078658

H          x = -0.956448  y = -1.980296  z = -0.945525 angstrom
           Maximum rank =  0   Radius =  0.325 angstrom
                   Q00  =   0.080166

H          x =  0.653552  y = -1.384296  z = -1.304525 angstrom
           Maximum rank =  0   Radius =  0.325 angstrom
                   Q00  =   0.077706

H          x = -0.427448  y = -2.086296  z = -3.355525 angstrom
           Maximum rank =  0   Radius =  0.325 angstrom
                   Q00  =   0.074768

H          x = -0.315995  y = -0.312056  z = -3.437005 angstrom
           Maximum rank =  0   Radius =  0.325 angstrom
                   Q00  =   0.079733

H          x = -1.877932  y = -1.143456  z = -3.030275 angstrom
           Maximum rank =  0   Radius =  0.325 angstrom
                   Q00  =   0.079217

Total multipoles referred to origin at
           x =   0.000000,  y =    0.000000,  z =    0.000000 angstrom
                   Q00  =  -0.000000

Finished at 14:39:37 on 28 Apr 2020 

  DMA results are available in the Python driver through the
	  variable('DMA DISTRIBUTED MULTIPOLES')
  and
	  variable('DMA TOTAL MULTIPOLES')
  commands.


    Psi4 stopped on: Tuesday, 28 April 2020 02:39PM
    Psi4 wall time for execution: 0:00:10.52

*** Psi4 exiting successfully. Buy a developer a beer!
