
    -----------------------------------------------------------------------
          Psi4: An Open-Source Ab Initio Electronic Structure Package
                               Psi4 1.3.2 release

                         Git: Rev {HEAD} ecbda83 


    R. M. Parrish, L. A. Burns, D. G. A. Smith, A. C. Simmonett,
    A. E. DePrince III, E. G. Hohenstein, U. Bozkaya, A. Yu. Sokolov,
    R. Di Remigio, R. M. Richard, J. F. Gonthier, A. M. James,
    H. R. McAlexander, A. Kumar, M. Saitow, X. Wang, B. P. Pritchard,
    P. Verma, H. F. Schaefer III, K. Patkowski, R. A. King, E. F. Valeev,
    F. A. Evangelista, J. M. Turney, T. D. Crawford, and C. D. Sherrill,
    J. Chem. Theory Comput. 13(7) pp 3185--3197 (2017).
    (doi: 10.1021/acs.jctc.7b00174)


                         Additional Contributions by
    P. Kraus, H. Kruse, M. H. Lechner, M. C. Schieber, R. A. Shaw,
    A. Alenaizan, R. Galvelis, Z. L. Glick, S. Lehtola, and J. P. Misiewicz

    -----------------------------------------------------------------------


    Psi4 started on: Tuesday, 28 April 2020 03:23AM

    Process ID: 22189
    Host:       ds3
    PSIDATADIR: /theoryfs2/ds/metcalf/miniconda2/envs/tf2gpu/share/psi4
    Memory:     500.0 MiB
    Threads:    1
    
  ==> Input File <==

--------------------------------------------------------------------------
import numpy as np
set {scf_type pk
basis cc-pvdz
d_convergence 10
gdma_switch   0
gdma_limit    0
gdma_origin   [ 0.0,  0.0,  0.0 ]
}
molecule test {
    units Angstrom
    -1 1
    --
    -1 1
    C               -2.744539897877761    -3.942594113156324     0.989905620613350
    C               -1.951539897877761    -2.666594113156324     0.725905620613350
    O               -0.729539897877761    -2.672594113156324     0.983905620613350
    O               -2.539539897877761    -1.666594113156325     0.255905620613350
    H               -2.611539897877761    -4.249594113156324     2.027905620613350
    H               -2.350539897877761    -4.738594113156325     0.354905620613350
    H               -3.817669897877761    -3.829670113156324     0.776285620613350
    C                0.999460102122239     4.165405886843676    -1.601094379386651
    C                1.138460102122239     0.248405886843675     0.160905620613350
    C               -0.023539897877761     0.687405886843675    -0.464094379386650
    C                2.256460102122239     1.077405886843675     0.212905620613350
    C               -0.066539897877761     1.956405886843675    -1.034094379386651
    C                2.203460102122239     2.344405886843675    -0.359094379386650
    C                1.047460102122239     2.790405886843676    -0.994094379386650
    O                1.191460102122239    -0.989594113156325     0.724905620613350
    H                0.342460102122239    -1.488594113156325     0.715905620613350
    H               -0.890539897877761     0.047405886843675    -0.500094379386650
    H                3.155460102122239     0.733405886843675     0.699905620613350
    H               -0.977539897877761     2.299405886843676    -1.507094379386650
    H                3.074460102122239     2.986405886843675    -0.310094379386650
    H                0.250460102122239     4.194405886843676    -2.395094379386650
    H                1.970460102122239     4.363405886843674    -2.053094379386650
    H                0.784560102122239     4.946405886843674    -0.856875379386650

}
e, wfn = energy('scf', return_wfn=True)
gdma(wfn)
dmavals = variable('DMA DISTRIBUTED MULTIPOLES')
charges = np.array(dmavals)
print(charges)
np.save('SSI-206ASP-210TYR-1-dimer.npy', np.array(charges))--------------------------------------------------------------------------

*** tstart() called on ds3
*** at Tue Apr 28 03:23:27 2020

   => Loading Basis Set <=

    Name: CC-PVDZ
    Role: ORBITAL
    Keyword: BASIS
    atoms 1-2, 8-14  entry C          line   138 file /theoryfs2/ds/metcalf/miniconda2/envs/tf2gpu/share/psi4/basis/cc-pvdz.gbs 
    atoms 3-4, 15    entry O          line   198 file /theoryfs2/ds/metcalf/miniconda2/envs/tf2gpu/share/psi4/basis/cc-pvdz.gbs 
    atoms 5-7, 16-23 entry H          line    22 file /theoryfs2/ds/metcalf/miniconda2/envs/tf2gpu/share/psi4/basis/cc-pvdz.gbs 


         ---------------------------------------------------------
                                   SCF
               by Justin Turney, Rob Parrish, Andy Simmonett
                          and Daniel G. A. Smith
                              RHF Reference
                        1 Threads,    500 MiB Core
         ---------------------------------------------------------

  ==> Geometry <==

    Molecular point group: c1
    Full point group: C1

    Geometry (in Angstrom), charge = -1, multiplicity = 1:

       Center              X                  Y                   Z               Mass       
    ------------   -----------------  -----------------  -----------------  -----------------
         C           -2.744539897878    -3.942594113156     0.989905620613    12.000000000000
         C           -1.951539897878    -2.666594113156     0.725905620613    12.000000000000
         O           -0.729539897878    -2.672594113156     0.983905620613    15.994914619570
         O           -2.539539897878    -1.666594113156     0.255905620613    15.994914619570
         H           -2.611539897878    -4.249594113156     2.027905620613     1.007825032230
         H           -2.350539897878    -4.738594113156     0.354905620613     1.007825032230
         H           -3.817669897878    -3.829670113156     0.776285620613     1.007825032230
         C            0.999460102122     4.165405886844    -1.601094379387    12.000000000000
         C            1.138460102122     0.248405886844     0.160905620613    12.000000000000
         C           -0.023539897878     0.687405886844    -0.464094379387    12.000000000000
         C            2.256460102122     1.077405886844     0.212905620613    12.000000000000
         C           -0.066539897878     1.956405886844    -1.034094379387    12.000000000000
         C            2.203460102122     2.344405886844    -0.359094379387    12.000000000000
         C            1.047460102122     2.790405886844    -0.994094379387    12.000000000000
         O            1.191460102122    -0.989594113156     0.724905620613    15.994914619570
         H            0.342460102122    -1.488594113156     0.715905620613     1.007825032230
         H           -0.890539897878     0.047405886844    -0.500094379387     1.007825032230
         H            3.155460102122     0.733405886844     0.699905620613     1.007825032230
         H           -0.977539897878     2.299405886844    -1.507094379387     1.007825032230
         H            3.074460102122     2.986405886844    -0.310094379387     1.007825032230
         H            0.250460102122     4.194405886844    -2.395094379387     1.007825032230
         H            1.970460102122     4.363405886844    -2.053094379387     1.007825032230
         H            0.784560102122     4.946405886844    -0.856875379387     1.007825032230

  Running in c1 symmetry.

  Rotational constants: A =      0.07881  B =      0.01194  C =      0.01043 [cm^-1]
  Rotational constants: A =   2362.64916  B =    358.07376  C =    312.64796 [MHz]
  Nuclear repulsion =  641.480118002083600

  Charge       = -1
  Multiplicity = 1
  Electrons    = 90
  Nalpha       = 45
  Nbeta        = 45

  ==> Algorithm <==

  SCF Algorithm Type is PK.
  DIIS enabled.
  MOM disabled.
  Fractional occupation disabled.
  Guess Type is SAD.
  Energy threshold   = 1.00e-06
  Density threshold  = 1.00e-10
  Integral threshold = 0.00e+00

  ==> Primary Basis <==

  Basis Set: CC-PVDZ
    Blend: CC-PVDZ
    Number of shells: 105
    Number of basis function: 223
    Number of Cartesian functions: 235
    Spherical Harmonics?: true
    Max angular momentum: 2

  ==> Pre-Iterations <==

   -------------------------------------------------------
    Irrep   Nso     Nmo     Nalpha   Nbeta   Ndocc  Nsocc
   -------------------------------------------------------
     A        223     223       0       0       0       0
   -------------------------------------------------------
    Total     223     223      45      45      45       0
   -------------------------------------------------------

  ==> Integral Setup <==

  Using integral reordering PK algorithm.
  Sizing the integral batches needed.
  Building batch lookup table.
   Calculation information:
      Number of atoms:                  23
      Number of AO shells:             105
      Number of primitives:            319
      Number of atomic orbitals:       235
      Number of basis functions:       223

      Integral cutoff                 1.00e-12
      Number of threads:                 1

	Batch   1 pq = [       0,    9405] index = [             0,44231715] size =     44231715
	Batch   2 pq = [    9405,   13301] index = [      44231715,88464951] size =     44233236
	Batch   3 pq = [   13301,   16290] index = [      88464951,132690195] size =     44225244
	Batch   4 pq = [   16290,   18810] index = [     132690195,176917455] size =     44227260
	Batch   5 pq = [   18810,   21030] index = [     176917455,221140965] size =     44223510
	Batch   6 pq = [   21030,   23037] index = [     221140965,265363203] size =     44222238
	Batch   7 pq = [   23037,   24976] index = [     265363203,311912776] size =     46549573
  Task number: 29
  Buffer size: 11059200
  Buffer per thread: 2
  We computed 11853096 shell quartets total.
  Whereas there are 15487395 unique shell quartets.

  ==> DiskJK: Disk-Based J/K Matrices <==

    J tasked:                  Yes
    K tasked:                  Yes
    wK tasked:                  No
    Memory [MiB]:              375
    Schwarz Cutoff:          1E-12

    OpenMP threads:              1

  Minimum eigenvalue in the overlap matrix is 3.1250712443E-04.
  Using Symmetric Orthogonalization.

  SCF Guess: Superposition of Atomic Densities via on-the-fly atomic UHF.

  ==> Iterations <==

                        Total Energy        Delta E     RMS |[F,P]|

   @RHF iter SAD:  -570.29878765063381   -5.70299e+02   0.00000e+00 
   @RHF iter   1:  -571.57166350740897   -1.27288e+00   3.57175e-03 DIIS
   @RHF iter   2:  -571.83992035752738   -2.68257e-01   1.85905e-03 DIIS
   @RHF iter   3:  -571.90425287798371   -6.43325e-02   3.39819e-04 DIIS
   @RHF iter   4:  -571.90790722957581   -3.65435e-03   1.29347e-04 DIIS
   @RHF iter   5:  -571.90842399238386   -5.16763e-04   2.37276e-05 DIIS
   @RHF iter   6:  -571.90844501907702   -2.10267e-05   1.14661e-05 DIIS
   @RHF iter   7:  -571.90844930975106   -4.29067e-06   3.05074e-06 DIIS
   @RHF iter   8:  -571.90845002709625   -7.17345e-07   1.22357e-06 DIIS
   @RHF iter   9:  -571.90845017485231   -1.47756e-07   5.53162e-07 DIIS
   @RHF iter  10:  -571.90845021012126   -3.52690e-08   2.49460e-07 DIIS
   @RHF iter  11:  -571.90845021814607   -8.02481e-09   1.07703e-07 DIIS
   @RHF iter  12:  -571.90845021940197   -1.25590e-09   4.19682e-08 DIIS
   @RHF iter  13:  -571.90845021956841   -1.66438e-10   1.18861e-08 DIIS
   @RHF iter  14:  -571.90845021958455   -1.61435e-11   4.56329e-09 DIIS
   @RHF iter  15:  -571.90845021959194   -7.38964e-12   1.64634e-09 DIIS
   @RHF iter  16:  -571.90845021958592    6.02540e-12   7.96955e-10 DIIS
   @RHF iter  17:  -571.90845021958148    4.43379e-12   2.90490e-10 DIIS
   @RHF iter  18:  -571.90845021958171   -2.27374e-13   1.07327e-10 DIIS
   @RHF iter  19:  -571.90845021958194   -2.27374e-13   5.09433e-11 DIIS
  Energy and wave function converged.


  ==> Post-Iterations <==

    Orbital Energies [Eh]
    ---------------------

    Doubly Occupied:                                                      

       1A    -20.395725     2A    -20.308458     3A    -20.300997  
       4A    -11.158482     5A    -11.157963     6A    -11.130505  
       7A    -11.118305     8A    -11.112354     9A    -11.110724  
      10A    -11.102304    11A    -11.087288    12A    -11.078740  
      13A     -1.219822    14A     -1.195407    15A     -1.081650  
      16A     -1.025291    17A     -0.916547    18A     -0.889404  
      19A     -0.825616    20A     -0.807688    21A     -0.711804  
      22A     -0.670778    23A     -0.591120    24A     -0.542046  
      25A     -0.530991    26A     -0.510880    27A     -0.480486  
      28A     -0.476062    29A     -0.459041    30A     -0.445649  
      31A     -0.440826    32A     -0.440369    33A     -0.437604  
      34A     -0.418221    35A     -0.399051    36A     -0.376905  
      37A     -0.370451    38A     -0.347748    39A     -0.344569  
      40A     -0.331489    41A     -0.229171    42A     -0.214684  
      43A     -0.212933    44A     -0.208256    45A     -0.165319  

    Virtual:                                                              

      46A      0.255989    47A      0.279875    48A      0.282992  
      49A      0.317495    50A      0.331528    51A      0.334341  
      52A      0.358347    53A      0.372339    54A      0.374565  
      55A      0.380915    56A      0.394805    57A      0.450454  
      58A      0.466739    59A      0.474194    60A      0.492954  
      61A      0.501458    62A      0.544067    63A      0.570884  
      64A      0.587037    65A      0.614890    66A      0.630695  
      67A      0.646104    68A      0.691214    69A      0.728612  
      70A      0.733116    71A      0.742584    72A      0.776704  
      73A      0.795258    74A      0.801018    75A      0.809254  
      76A      0.817576    77A      0.829801    78A      0.850630  
      79A      0.858354    80A      0.863407    81A      0.870205  
      82A      0.888366    83A      0.905752    84A      0.906487  
      85A      0.915258    86A      0.921665    87A      0.940245  
      88A      0.958210    89A      0.974140    90A      0.977463  
      91A      0.981552    92A      1.002517    93A      1.008054  
      94A      1.010367    95A      1.011871    96A      1.031688  
      97A      1.036538    98A      1.047686    99A      1.052390  
     100A      1.063181   101A      1.072835   102A      1.093358  
     103A      1.110651   104A      1.146974   105A      1.167610  
     106A      1.192846   107A      1.223675   108A      1.262922  
     109A      1.273763   110A      1.283529   111A      1.302633  
     112A      1.320526   113A      1.330792   114A      1.356934  
     115A      1.368670   116A      1.375323   117A      1.391298  
     118A      1.400435   119A      1.418545   120A      1.441301  
     121A      1.448798   122A      1.461898   123A      1.482900  
     124A      1.508751   125A      1.521006   126A      1.535774  
     127A      1.569913   128A      1.601644   129A      1.616056  
     130A      1.625935   131A      1.634256   132A      1.669015  
     133A      1.685750   134A      1.697670   135A      1.729823  
     136A      1.767758   137A      1.793002   138A      1.803010  
     139A      1.815358   140A      1.819370   141A      1.842578  
     142A      1.861963   143A      1.878590   144A      1.882446  
     145A      1.899409   146A      1.934182   147A      1.944411  
     148A      1.987021   149A      2.004439   150A      2.020757  
     151A      2.026237   152A      2.041353   153A      2.043079  
     154A      2.061645   155A      2.065172   156A      2.072756  
     157A      2.082650   158A      2.087162   159A      2.094832  
     160A      2.103928   161A      2.119137   162A      2.167220  
     163A      2.175354   164A      2.189574   165A      2.194147  
     166A      2.199957   167A      2.235128   168A      2.249728  
     169A      2.265227   170A      2.274243   171A      2.277987  
     172A      2.308650   173A      2.333177   174A      2.354718  
     175A      2.368272   176A      2.391521   177A      2.397414  
     178A      2.406029   179A      2.412772   180A      2.460476  
     181A      2.499140   182A      2.530500   183A      2.546959  
     184A      2.590332   185A      2.607779   186A      2.614989  
     187A      2.651383   188A      2.685469   189A      2.691009  
     190A      2.717949   191A      2.744691   192A      2.794287  
     193A      2.855643   194A      2.860510   195A      2.882804  
     196A      2.894660   197A      2.913113   198A      2.935960  
     199A      2.938324   200A      2.947162   201A      3.012831  
     202A      3.026306   203A      3.094167   204A      3.134302  
     205A      3.192099   206A      3.222654   207A      3.230996  
     208A      3.245553   209A      3.269479   210A      3.415749  
     211A      3.417246   212A      3.423581   213A      3.539625  
     214A      3.593930   215A      3.712491   216A      3.769385  
     217A      3.779690   218A      3.885593   219A      4.030863  
     220A      4.060893   221A      4.145537   222A      4.178532  
     223A      4.452978  

    Final Occupation by Irrep:
              A 
    DOCC [    45 ]

  @RHF Final Energy:  -571.90845021958194

   => Energetics <=

    Nuclear Repulsion Energy =            641.4801180020836000
    One-Electron Energy =               -2068.0176879194791582
    Two-Electron Energy =                 854.6291196978136213
    Total Energy =                       -571.9084502195819368

Computation Completed


Properties will be evaluated at   0.000000,   0.000000,   0.000000 [a0]

Properties computed using the SCF density matrix

  Nuclear Dipole Moment: [e a0]
     X:    -1.0130      Y:     4.9096      Z:    -2.8474

  Electronic Dipole Moment: [e a0]
     X:     2.2866      Y:    -2.5593      Z:     1.9749

  Dipole Moment: [e a0]
     X:     1.2735      Y:     2.3503      Z:    -0.8725     Total:     2.8119

  Dipole Moment: [D]
     X:     3.2369      Y:     5.9738      Z:    -2.2178     Total:     7.1472


*** tstop() called on ds3 at Tue Apr 28 03:25:58 2020
Module time:
	user time   =     104.62 seconds =       1.74 minutes
	system time =      53.06 seconds =       0.88 minutes
	total time  =        151 seconds =       2.52 minutes
Total time:
	user time   =     104.62 seconds =       1.74 minutes
	system time =      53.06 seconds =       0.88 minutes
	total time  =        151 seconds =       2.52 minutes
                                     G D M A

                                 by Anthony Stone

                           version 2.2.06, 22 June 2011

               Distributed Multipoles from Gaussian wavefunctions


Starting at 3:25:58 on 28 Apr 2020  


Using SCF density matrix from file ./SSI/SSI-206ASP-210TYR-1-dimer.test.22189.fchk


                         Distributed Multipole Analysis

Standard DMA

Positions and radii in angstrom
Multipole moments in atomic units, ea_0^k for rank k

C          x = -2.744540  y = -3.942594  z =  0.989906 angstrom
           Maximum rank =  0   Radius =  0.650 angstrom
                   Q00  =  -0.257735

C          x = -1.951540  y = -2.666594  z =  0.725906 angstrom
           Maximum rank =  0   Radius =  0.650 angstrom
                   Q00  =   0.906552

O          x = -0.729540  y = -2.672594  z =  0.983906 angstrom
           Maximum rank =  0   Radius =  0.650 angstrom
                   Q00  =  -0.942350

O          x = -2.539540  y = -1.666594  z =  0.255906 angstrom
           Maximum rank =  0   Radius =  0.650 angstrom
                   Q00  =  -0.894120

H          x = -2.611540  y = -4.249594  z =  2.027906 angstrom
           Maximum rank =  0   Radius =  0.325 angstrom
                   Q00  =   0.079479

H          x = -2.350540  y = -4.738594  z =  0.354906 angstrom
           Maximum rank =  0   Radius =  0.325 angstrom
                   Q00  =   0.081021

H          x = -3.817670  y = -3.829670  z =  0.776286 angstrom
           Maximum rank =  0   Radius =  0.325 angstrom
                   Q00  =   0.062597

C          x =  0.999460  y =  4.165406  z = -1.601094 angstrom
           Maximum rank =  0   Radius =  0.650 angstrom
                   Q00  =  -0.185503

C          x =  1.138460  y =  0.248406  z =  0.160906 angstrom
           Maximum rank =  0   Radius =  0.650 angstrom
                   Q00  =   0.399097

C          x = -0.023540  y =  0.687406  z = -0.464094 angstrom
           Maximum rank =  0   Radius =  0.650 angstrom
                   Q00  =  -0.163204

C          x =  2.256460  y =  1.077406  z =  0.212906 angstrom
           Maximum rank =  0   Radius =  0.650 angstrom
                   Q00  =  -0.131026

C          x = -0.066540  y =  1.956406  z = -1.034094 angstrom
           Maximum rank =  0   Radius =  0.650 angstrom
                   Q00  =   0.025499

C          x =  2.203460  y =  2.344406  z = -0.359094 angstrom
           Maximum rank =  0   Radius =  0.650 angstrom
                   Q00  =  -0.039032

C          x =  1.047460  y =  2.790406  z = -0.994094 angstrom
           Maximum rank =  0   Radius =  0.650 angstrom
                   Q00  =  -0.156811

O          x =  1.191460  y = -0.989594  z =  0.724906 angstrom
           Maximum rank =  0   Radius =  0.650 angstrom
                   Q00  =  -0.803523

H          x =  0.342460  y = -1.488594  z =  0.715906 angstrom
           Maximum rank =  0   Radius =  0.325 angstrom
                   Q00  =   0.569250

H          x = -0.890540  y =  0.047406  z = -0.500094 angstrom
           Maximum rank =  0   Radius =  0.325 angstrom
                   Q00  =   0.094162

H          x =  3.155460  y =  0.733406  z =  0.699906 angstrom
           Maximum rank =  0   Radius =  0.325 angstrom
                   Q00  =   0.050968

H          x = -0.977540  y =  2.299406  z = -1.507094 angstrom
           Maximum rank =  0   Radius =  0.325 angstrom
                   Q00  =   0.041280

H          x =  3.074460  y =  2.986406  z = -0.310094 angstrom
           Maximum rank =  0   Radius =  0.325 angstrom
                   Q00  =   0.026784

H          x =  0.250460  y =  4.194406  z = -2.395094 angstrom
           Maximum rank =  0   Radius =  0.325 angstrom
                   Q00  =   0.084099

H          x =  1.970460  y =  4.363406  z = -2.053094 angstrom
           Maximum rank =  0   Radius =  0.325 angstrom
                   Q00  =   0.075149

H          x =  0.784560  y =  4.946406  z = -0.856875 angstrom
           Maximum rank =  0   Radius =  0.325 angstrom
                   Q00  =   0.077369

Total multipoles referred to origin at
           x =   0.000000,  y =    0.000000,  z =    0.000000 angstrom
                   Q00  =  -1.000000

Finished at 3:25:58 on 28 Apr 2020  

  DMA results are available in the Python driver through the
	  variable('DMA DISTRIBUTED MULTIPOLES')
  and
	  variable('DMA TOTAL MULTIPOLES')
  commands.


    Psi4 stopped on: Tuesday, 28 April 2020 03:25AM
    Psi4 wall time for execution: 0:02:31.71

*** Psi4 exiting successfully. Buy a developer a beer!
