
    -----------------------------------------------------------------------
          Psi4: An Open-Source Ab Initio Electronic Structure Package
                               Psi4 1.3.2 release

                         Git: Rev {HEAD} ecbda83 


    R. M. Parrish, L. A. Burns, D. G. A. Smith, A. C. Simmonett,
    A. E. DePrince III, E. G. Hohenstein, U. Bozkaya, A. Yu. Sokolov,
    R. Di Remigio, R. M. Richard, J. F. Gonthier, A. M. James,
    H. R. McAlexander, A. Kumar, M. Saitow, X. Wang, B. P. Pritchard,
    P. Verma, H. F. Schaefer III, K. Patkowski, R. A. King, E. F. Valeev,
    F. A. Evangelista, J. M. Turney, T. D. Crawford, and C. D. Sherrill,
    J. Chem. Theory Comput. 13(7) pp 3185--3197 (2017).
    (doi: 10.1021/acs.jctc.7b00174)


                         Additional Contributions by
    P. Kraus, H. Kruse, M. H. Lechner, M. C. Schieber, R. A. Shaw,
    A. Alenaizan, R. Galvelis, Z. L. Glick, S. Lehtola, and J. P. Misiewicz

    -----------------------------------------------------------------------


    Psi4 started on: Tuesday, 28 April 2020 03:24AM

    Process ID: 26797
    Host:       ds3
    PSIDATADIR: /theoryfs2/ds/metcalf/miniconda2/envs/tf2gpu/share/psi4
    Memory:     500.0 MiB
    Threads:    1
    
  ==> Input File <==

--------------------------------------------------------------------------
import numpy as np
set {scf_type pk
basis cc-pvdz
d_convergence 10
gdma_switch   0
gdma_limit    0
gdma_origin   [ 0.0,  0.0,  0.0 ]
}
molecule test {
    units Angstrom
    0 1
    --
    0 1
    C               -0.205901513532391     2.408081757092708    -1.732336509913326
    C               -0.195901513532391     1.070081757092708    -2.443336509913326
    C               -1.548901513532391     2.990081757092709    -2.110336509913326
    H                0.618098486467609     3.042081757092709    -2.060336509913326
    H               -0.172901513532391     2.265081757092708    -0.653336509913326
    H                0.089098486467609     1.215081757092708    -3.486336509913326
    H                0.491098486467609     0.382081757092708    -1.952336509913326
    H               -1.453901513532391     3.543081757092708    -3.042336509913326
    H               -1.932901513532391     3.644081757092708    -1.325336509913326
    H               -1.241157513532391     0.732491757092708    -2.384427509913326
    H               -2.199803513532391     2.116281757092708    -2.261311509913326
    C                2.398098486467608    -1.367918242907292    -0.214336509913326
    C                0.695098486467609     0.118081757092708     0.855663490086674
    C                1.127098486467609    -1.161918242907292     0.561663490086674
    C               -0.494901513532391     0.317081757092708     1.525663490086674
    C                0.359098486467609    -2.244918242907292     0.958663490086674
    C               -1.280901513532391    -0.765918242907292     1.897663490086674
    C               -0.837901513532391    -2.051918242907292     1.632663490086674
    H                1.291098486467609     0.972081757092708     0.563663490086674
    H               -0.820901513532391     1.323081757092708     1.750663490086674
    H                2.498098486467609    -0.565918242907292    -0.948336509913326
    H                2.302098486467608    -2.299918242907291    -0.773336509913326
    H                0.695098486467609    -3.249918242907291     0.746663490086674
    H               -2.217901513532391    -0.604918242907292     2.413663490086674
    H               -1.435901513532391    -2.902918242907292     1.923663490086674
    H                3.312258486467609    -1.405859242907292     0.396296490086674

}
e, wfn = energy('scf', return_wfn=True)
gdma(wfn)
dmavals = variable('DMA DISTRIBUTED MULTIPOLES')
charges = np.array(dmavals)
print(charges)
np.save('SSI-135PRO-155PHE-1-dimer.npy', np.array(charges))--------------------------------------------------------------------------

*** tstart() called on ds3
*** at Tue Apr 28 03:24:32 2020

   => Loading Basis Set <=

    Name: CC-PVDZ
    Role: ORBITAL
    Keyword: BASIS
    atoms 1-3, 12-18  entry C          line   138 file /theoryfs2/ds/metcalf/miniconda2/envs/tf2gpu/share/psi4/basis/cc-pvdz.gbs 
    atoms 4-11, 19-26 entry H          line    22 file /theoryfs2/ds/metcalf/miniconda2/envs/tf2gpu/share/psi4/basis/cc-pvdz.gbs 


         ---------------------------------------------------------
                                   SCF
               by Justin Turney, Rob Parrish, Andy Simmonett
                          and Daniel G. A. Smith
                              RHF Reference
                        1 Threads,    500 MiB Core
         ---------------------------------------------------------

  ==> Geometry <==

    Molecular point group: c1
    Full point group: C1

    Geometry (in Angstrom), charge = 0, multiplicity = 1:

       Center              X                  Y                   Z               Mass       
    ------------   -----------------  -----------------  -----------------  -----------------
         C           -0.205901513532     2.408081757093    -1.732336509913    12.000000000000
         C           -0.195901513532     1.070081757093    -2.443336509913    12.000000000000
         C           -1.548901513532     2.990081757093    -2.110336509913    12.000000000000
         H            0.618098486468     3.042081757093    -2.060336509913     1.007825032230
         H           -0.172901513532     2.265081757093    -0.653336509913     1.007825032230
         H            0.089098486468     1.215081757093    -3.486336509913     1.007825032230
         H            0.491098486468     0.382081757093    -1.952336509913     1.007825032230
         H           -1.453901513532     3.543081757093    -3.042336509913     1.007825032230
         H           -1.932901513532     3.644081757093    -1.325336509913     1.007825032230
         H           -1.241157513532     0.732491757093    -2.384427509913     1.007825032230
         H           -2.199803513532     2.116281757093    -2.261311509913     1.007825032230
         C            2.398098486468    -1.367918242907    -0.214336509913    12.000000000000
         C            0.695098486468     0.118081757093     0.855663490087    12.000000000000
         C            1.127098486468    -1.161918242907     0.561663490087    12.000000000000
         C           -0.494901513532     0.317081757093     1.525663490087    12.000000000000
         C            0.359098486468    -2.244918242907     0.958663490087    12.000000000000
         C           -1.280901513532    -0.765918242907     1.897663490087    12.000000000000
         C           -0.837901513532    -2.051918242907     1.632663490087    12.000000000000
         H            1.291098486468     0.972081757093     0.563663490087     1.007825032230
         H           -0.820901513532     1.323081757093     1.750663490087     1.007825032230
         H            2.498098486468    -0.565918242907    -0.948336509913     1.007825032230
         H            2.302098486468    -2.299918242907    -0.773336509913     1.007825032230
         H            0.695098486468    -3.249918242907     0.746663490087     1.007825032230
         H           -2.217901513532    -0.604918242907     2.413663490087     1.007825032230
         H           -1.435901513532    -2.902918242907     1.923663490087     1.007825032230
         H            3.312258486468    -1.405859242907     0.396296490087     1.007825032230

  Running in c1 symmetry.

  Rotational constants: A =      0.05946  B =      0.02254  C =      0.01855 [cm^-1]
  Rotational constants: A =   1782.56379  B =    675.71864  C =    556.05928 [MHz]
  Nuclear repulsion =  499.106011223381358

  Charge       = 0
  Multiplicity = 1
  Electrons    = 76
  Nalpha       = 38
  Nbeta        = 38

  ==> Algorithm <==

  SCF Algorithm Type is PK.
  DIIS enabled.
  MOM disabled.
  Fractional occupation disabled.
  Guess Type is SAD.
  Energy threshold   = 1.00e-06
  Density threshold  = 1.00e-10
  Integral threshold = 0.00e+00

  ==> Primary Basis <==

  Basis Set: CC-PVDZ
    Blend: CC-PVDZ
    Number of shells: 108
    Number of basis function: 220
    Number of Cartesian functions: 230
    Spherical Harmonics?: true
    Max angular momentum: 2

  ==> Pre-Iterations <==

   -------------------------------------------------------
    Irrep   Nso     Nmo     Nalpha   Nbeta   Ndocc  Nsocc
   -------------------------------------------------------
     A        220     220       0       0       0       0
   -------------------------------------------------------
    Total     220     220      38      38      38       0
   -------------------------------------------------------

  ==> Integral Setup <==

  Using integral reordering PK algorithm.
  Sizing the integral batches needed.
  Building batch lookup table.
   Calculation information:
      Number of atoms:                  26
      Number of AO shells:             108
      Number of primitives:            300
      Number of atomic orbitals:       230
      Number of basis functions:       220

      Integral cutoff                 1.00e-12
      Number of threads:                 1

	Batch   1 pq = [       0,    9405] index = [             0,44231715] size =     44231715
	Batch   2 pq = [    9405,   13301] index = [      44231715,88464951] size =     44233236
	Batch   3 pq = [   13301,   16290] index = [      88464951,132690195] size =     44225244
	Batch   4 pq = [   16290,   18810] index = [     132690195,176917455] size =     44227260
	Batch   5 pq = [   18810,   21030] index = [     176917455,221140965] size =     44223510
	Batch   6 pq = [   21030,   23037] index = [     221140965,265363203] size =     44222238
	Batch   7 pq = [   23037,   24310] index = [     265363203,295500205] size =     30137002
  Task number: 27
  Buffer size: 11059200
  Buffer per thread: 2
  We computed 16639724 shell quartets total.
  Whereas there are 17325441 unique shell quartets.

  ==> DiskJK: Disk-Based J/K Matrices <==

    J tasked:                  Yes
    K tasked:                  Yes
    wK tasked:                  No
    Memory [MiB]:              375
    Schwarz Cutoff:          1E-12

    OpenMP threads:              1

  Minimum eigenvalue in the overlap matrix is 2.9784431962E-04.
  Using Symmetric Orthogonalization.

  SCF Guess: Superposition of Atomic Densities via on-the-fly atomic UHF.

  ==> Iterations <==

                        Total Energy        Delta E     RMS |[F,P]|

   @RHF iter SAD:  -387.16927216795023   -3.87169e+02   0.00000e+00 
   @RHF iter   1:  -387.74403993699252   -5.74768e-01   2.81071e-03 DIIS
   @RHF iter   2:  -387.96782465593276   -2.23785e-01   1.20462e-03 DIIS
   @RHF iter   3:  -388.00561418411365   -3.77895e-02   2.55497e-04 DIIS
   @RHF iter   4:  -388.00855424441420   -2.94006e-03   5.24779e-05 DIIS
   @RHF iter   5:  -388.00864492980224   -9.06854e-05   1.65831e-05 DIIS
   @RHF iter   6:  -388.00865361737743   -8.68758e-06   5.04792e-06 DIIS
   @RHF iter   7:  -388.00865452193091   -9.04553e-07   1.21846e-06 DIIS
   @RHF iter   8:  -388.00865459141198   -6.94811e-08   3.31560e-07 DIIS
   @RHF iter   9:  -388.00865460219234   -1.07804e-08   1.56802e-07 DIIS
   @RHF iter  10:  -388.00865460487108   -2.67875e-09   7.43541e-08 DIIS
   @RHF iter  11:  -388.00865460567059   -7.99503e-10   3.13828e-08 DIIS
   @RHF iter  12:  -388.00865460578643   -1.15847e-10   1.19655e-08 DIIS
   @RHF iter  13:  -388.00865460579712   -1.06866e-11   3.78375e-09 DIIS
   @RHF iter  14:  -388.00865460579860   -1.47793e-12   9.84922e-10 DIIS
   @RHF iter  15:  -388.00865460579922   -6.25278e-13   3.59183e-10 DIIS
   @RHF iter  16:  -388.00865460579917    5.68434e-14   1.47349e-10 DIIS
   @RHF iter  17:  -388.00865460579712    2.04636e-12   6.35252e-11 DIIS
  Energy and wave function converged.


  ==> Post-Iterations <==

    Orbital Energies [Eh]
    ---------------------

    Doubly Occupied:                                                      

       1A    -11.237781     2A    -11.234208     3A    -11.233649  
       4A    -11.230728     5A    -11.229116     6A    -11.228941  
       7A    -11.227586     8A    -11.210538     9A    -11.208648  
      10A    -11.207389    11A     -1.158100    12A     -1.065438  
      13A     -1.046486    14A     -1.015248    15A     -0.932185  
      16A     -0.910470    17A     -0.826523    18A     -0.799579  
      19A     -0.794248    20A     -0.693601    21A     -0.636155  
      22A     -0.633315    23A     -0.629498    24A     -0.611733  
      25A     -0.583704    26A     -0.577393    27A     -0.563507  
      28A     -0.538296    29A     -0.533931    30A     -0.509099  
      31A     -0.490052    32A     -0.484822    33A     -0.482792  
      34A     -0.481589    35A     -0.465283    36A     -0.453199  
      37A     -0.333999    38A     -0.323787  

    Virtual:                                                              

      39A      0.137653    40A      0.139941    41A      0.176245  
      42A      0.196309    43A      0.197426    44A      0.215637  
      45A      0.228273    46A      0.234289    47A      0.244066  
      48A      0.256582    49A      0.265506    50A      0.266434  
      51A      0.287665    52A      0.289467    53A      0.292581  
      54A      0.322266    55A      0.342274    56A      0.350109  
      57A      0.364791    58A      0.383924    59A      0.399581  
      60A      0.440758    61A      0.455472    62A      0.465944  
      63A      0.489336    64A      0.505917    65A      0.559446  
      66A      0.571861    67A      0.597648    68A      0.599190  
      69A      0.619778    70A      0.643219    71A      0.658948  
      72A      0.676147    73A      0.686120    74A      0.699723  
      75A      0.713062    76A      0.718453    77A      0.736666  
      78A      0.742083    79A      0.748021    80A      0.764447  
      81A      0.769157    82A      0.782849    83A      0.791706  
      84A      0.814048    85A      0.834610    86A      0.842766  
      87A      0.849917    88A      0.864603    89A      0.866007  
      90A      0.872163    91A      0.879496    92A      0.884858  
      93A      0.886424    94A      0.897357    95A      0.905973  
      96A      0.911279    97A      0.917560    98A      0.926136  
      99A      0.936998   100A      0.946709   101A      0.957372  
     102A      0.960077   103A      0.982483   104A      0.985133  
     105A      1.008785   106A      1.026574   107A      1.058093  
     108A      1.081480   109A      1.102022   110A      1.116626  
     111A      1.128848   112A      1.150898   113A      1.157179  
     114A      1.185612   115A      1.189687   116A      1.235749  
     117A      1.250088   118A      1.253466   119A      1.263342  
     120A      1.275126   121A      1.307035   122A      1.316230  
     123A      1.323727   124A      1.351060   125A      1.411338  
     126A      1.426809   127A      1.471643   128A      1.486771  
     129A      1.514099   130A      1.531331   131A      1.551654  
     132A      1.603644   133A      1.624047   134A      1.632404  
     135A      1.638431   136A      1.684695   137A      1.706915  
     138A      1.733106   139A      1.741916   140A      1.745101  
     141A      1.759076   142A      1.763171   143A      1.809501  
     144A      1.812308   145A      1.813740   146A      1.860009  
     147A      1.870831   148A      1.884099   149A      1.892502  
     150A      1.912057   151A      1.915104   152A      1.922886  
     153A      1.923956   154A      1.932630   155A      1.941867  
     156A      1.944877   157A      1.952257   158A      1.959179  
     159A      1.975602   160A      1.980654   161A      1.987929  
     162A      1.999190   163A      2.005371   164A      2.015339  
     165A      2.035822   166A      2.042430   167A      2.049264  
     168A      2.075602   169A      2.085152   170A      2.114470  
     171A      2.136120   172A      2.146354   173A      2.153919  
     174A      2.160500   175A      2.174034   176A      2.187627  
     177A      2.191504   178A      2.213382   179A      2.247418  
     180A      2.268340   181A      2.285345   182A      2.301109  
     183A      2.306791   184A      2.320128   185A      2.327417  
     186A      2.333865   187A      2.370621   188A      2.445606  
     189A      2.472188   190A      2.473583   191A      2.484497  
     192A      2.502590   193A      2.519909   194A      2.555088  
     195A      2.568487   196A      2.625578   197A      2.650335  
     198A      2.713600   199A      2.743311   200A      2.760354  
     201A      2.772156   202A      2.780043   203A      2.789658  
     204A      2.799012   205A      2.810494   206A      2.820556  
     207A      2.846632   208A      2.863017   209A      2.875756  
     210A      2.903113   211A      2.938422   212A      2.977342  
     213A      3.001662   214A      3.020969   215A      3.032058  
     216A      3.067995   217A      3.166816   218A      3.217470  
     219A      3.313668   220A      3.992826  

    Final Occupation by Irrep:
              A 
    DOCC [    38 ]

  @RHF Final Energy:  -388.00865460579712

   => Energetics <=

    Nuclear Repulsion Energy =            499.1060112233813584
    One-Electron Energy =               -1512.5840988006038970
    Two-Electron Energy =                 625.4694329714254764
    Total Energy =                       -388.0086546057971191

Computation Completed


Properties will be evaluated at   0.000000,   0.000000,   0.000000 [a0]

Properties computed using the SCF density matrix

  Nuclear Dipole Moment: [e a0]
     X:    -0.1673      Y:     7.6929      Z:   -10.3992

  Electronic Dipole Moment: [e a0]
     X:     0.2861      Y:    -7.7491      Z:    10.3811

  Dipole Moment: [e a0]
     X:     0.1188      Y:    -0.0563      Z:    -0.0181     Total:     0.1327

  Dipole Moment: [D]
     X:     0.3020      Y:    -0.1430      Z:    -0.0460     Total:     0.3373


*** tstop() called on ds3 at Tue Apr 28 03:27:10 2020
Module time:
	user time   =     119.28 seconds =       1.99 minutes
	system time =      44.98 seconds =       0.75 minutes
	total time  =        158 seconds =       2.63 minutes
Total time:
	user time   =     119.28 seconds =       1.99 minutes
	system time =      44.98 seconds =       0.75 minutes
	total time  =        158 seconds =       2.63 minutes
                                     G D M A

                                 by Anthony Stone

                           version 2.2.06, 22 June 2011

               Distributed Multipoles from Gaussian wavefunctions


Starting at 3:27:10 on 28 Apr 2020  


Using SCF density matrix from file ./SSI/SSI-135PRO-155PHE-1-dimer.test.26797.fchk


                         Distributed Multipole Analysis

Standard DMA

Positions and radii in angstrom
Multipole moments in atomic units, ea_0^k for rank k

C          x = -0.205902  y =  2.408082  z = -1.732337 angstrom
           Maximum rank =  0   Radius =  0.650 angstrom
                   Q00  =  -0.106297

C          x = -0.195902  y =  1.070082  z = -2.443337 angstrom
           Maximum rank =  0   Radius =  0.650 angstrom
                   Q00  =  -0.199605

C          x = -1.548902  y =  2.990082  z = -2.110337 angstrom
           Maximum rank =  0   Radius =  0.650 angstrom
                   Q00  =  -0.225825

H          x =  0.618098  y =  3.042082  z = -2.060337 angstrom
           Maximum rank =  0   Radius =  0.325 angstrom
                   Q00  =   0.050315

H          x = -0.172902  y =  2.265082  z = -0.653337 angstrom
           Maximum rank =  0   Radius =  0.325 angstrom
                   Q00  =   0.052488

H          x =  0.089098  y =  1.215082  z = -3.486337 angstrom
           Maximum rank =  0   Radius =  0.325 angstrom
                   Q00  =   0.073177

H          x =  0.491098  y =  0.382082  z = -1.952337 angstrom
           Maximum rank =  0   Radius =  0.325 angstrom
                   Q00  =   0.082973

H          x = -1.453902  y =  3.543082  z = -3.042337 angstrom
           Maximum rank =  0   Radius =  0.325 angstrom
                   Q00  =   0.076286

H          x = -1.932902  y =  3.644082  z = -1.325337 angstrom
           Maximum rank =  0   Radius =  0.325 angstrom
                   Q00  =   0.076526

H          x = -1.241158  y =  0.732492  z = -2.384428 angstrom
           Maximum rank =  0   Radius =  0.325 angstrom
                   Q00  =   0.055067

H          x = -2.199804  y =  2.116282  z = -2.261312 angstrom
           Maximum rank =  0   Radius =  0.325 angstrom
                   Q00  =   0.062031

C          x =  2.398098  y = -1.367918  z = -0.214337 angstrom
           Maximum rank =  0   Radius =  0.650 angstrom
                   Q00  =  -0.200632

C          x =  0.695098  y =  0.118082  z =  0.855663 angstrom
           Maximum rank =  0   Radius =  0.650 angstrom
                   Q00  =  -0.046433

C          x =  1.127098  y = -1.161918  z =  0.561663 angstrom
           Maximum rank =  0   Radius =  0.650 angstrom
                   Q00  =  -0.100593

C          x = -0.494902  y =  0.317082  z =  1.525663 angstrom
           Maximum rank =  0   Radius =  0.650 angstrom
                   Q00  =  -0.041030

C          x =  0.359098  y = -2.244918  z =  0.958663 angstrom
           Maximum rank =  0   Radius =  0.650 angstrom
                   Q00  =  -0.051148

C          x = -1.280902  y = -0.765918  z =  1.897663 angstrom
           Maximum rank =  0   Radius =  0.650 angstrom
                   Q00  =  -0.078924

C          x = -0.837902  y = -2.051918  z =  1.632663 angstrom
           Maximum rank =  0   Radius =  0.650 angstrom
                   Q00  =  -0.075594

H          x =  1.291098  y =  0.972082  z =  0.563663 angstrom
           Maximum rank =  0   Radius =  0.325 angstrom
                   Q00  =   0.055968

H          x = -0.820902  y =  1.323082  z =  1.750663 angstrom
           Maximum rank =  0   Radius =  0.325 angstrom
                   Q00  =   0.061979

H          x =  2.498098  y = -0.565918  z = -0.948337 angstrom
           Maximum rank =  0   Radius =  0.325 angstrom
                   Q00  =   0.094067

H          x =  2.302098  y = -2.299918  z = -0.773337 angstrom
           Maximum rank =  0   Radius =  0.325 angstrom
                   Q00  =   0.096558

H          x =  0.695098  y = -3.249918  z =  0.746663 angstrom
           Maximum rank =  0   Radius =  0.325 angstrom
                   Q00  =   0.056317

H          x = -2.217902  y = -0.604918  z =  2.413663 angstrom
           Maximum rank =  0   Radius =  0.325 angstrom
                   Q00  =   0.061457

H          x = -1.435902  y = -2.902918  z =  1.923663 angstrom
           Maximum rank =  0   Radius =  0.325 angstrom
                   Q00  =   0.064171

H          x =  3.312258  y = -1.405859  z =  0.396296 angstrom
           Maximum rank =  0   Radius =  0.325 angstrom
                   Q00  =   0.106702

Total multipoles referred to origin at
           x =   0.000000,  y =    0.000000,  z =    0.000000 angstrom
                   Q00  =  -0.000000

Finished at 3:27:10 on 28 Apr 2020  

  DMA results are available in the Python driver through the
	  variable('DMA DISTRIBUTED MULTIPOLES')
  and
	  variable('DMA TOTAL MULTIPOLES')
  commands.


    Psi4 stopped on: Tuesday, 28 April 2020 03:27AM
    Psi4 wall time for execution: 0:02:38.74

*** Psi4 exiting successfully. Buy a developer a beer!
