
    -----------------------------------------------------------------------
          Psi4: An Open-Source Ab Initio Electronic Structure Package
                               Psi4 1.3.2 release

                         Git: Rev {HEAD} ecbda83 


    R. M. Parrish, L. A. Burns, D. G. A. Smith, A. C. Simmonett,
    A. E. DePrince III, E. G. Hohenstein, U. Bozkaya, A. Yu. Sokolov,
    R. Di Remigio, R. M. Richard, J. F. Gonthier, A. M. James,
    H. R. McAlexander, A. Kumar, M. Saitow, X. Wang, B. P. Pritchard,
    P. Verma, H. F. Schaefer III, K. Patkowski, R. A. King, E. F. Valeev,
    F. A. Evangelista, J. M. Turney, T. D. Crawford, and C. D. Sherrill,
    J. Chem. Theory Comput. 13(7) pp 3185--3197 (2017).
    (doi: 10.1021/acs.jctc.7b00174)


                         Additional Contributions by
    P. Kraus, H. Kruse, M. H. Lechner, M. C. Schieber, R. A. Shaw,
    A. Alenaizan, R. Galvelis, Z. L. Glick, S. Lehtola, and J. P. Misiewicz

    -----------------------------------------------------------------------


    Psi4 started on: Sunday, 26 April 2020 11:42PM

    Process ID: 3040
    Host:       ds3
    PSIDATADIR: /theoryfs2/ds/metcalf/miniconda2/envs/tf2gpu/share/psi4
    Memory:     500.0 MiB
    Threads:    1
    
  ==> Input File <==

--------------------------------------------------------------------------
import numpy as np
set {scf_type pk
basis cc-pvdz
d_convergence 10
gdma_switch   0
gdma_limit    0
gdma_origin   [ 0.0,  0.0,  0.0 ]
}
molecule test {
    units Angstrom
    0 1
    --
    0 1
    C                1.639258507648157     1.387727211477779     2.812151766164448
    C                0.986258507647157    -0.269272788522220    -0.512848233835552
    C                0.724258507648157    -0.140272788522220     0.885151766164448
    C                1.592258507647157     0.883727211477780     1.397151766164448
    C                2.330258507648157     1.327727211477779     0.343151766164448
    C               -0.671741492351843    -2.009272788522221    -0.700848233835552
    C                0.297258507648157    -1.192272788522221    -1.308848233835552
    C               -0.945741492351843    -1.898272788522221     0.671151766164448
    C               -0.257741492352843    -0.973272788522220     1.466151766164448
    N                1.974258507647157     0.643727211477779    -0.820848233835552
    H               -1.218741492351843    -2.732272788522220    -1.289848233835552
    H                0.532258507648157    -1.247272788522220    -2.365848233835552
    H               -1.694741492351843    -2.527272788522220     1.137151766164448
    H               -0.506741492351843    -0.926272788522220     2.520151766164448
    H                2.366258507648157     0.784727211477780    -1.749848233835552
    H                3.063258507648157     2.114727211477780     0.506151766164448
    H                2.500258507648156     2.048727211477779     2.895151766164448
    H                1.794258507647157     0.520727211477779     3.458151766164448
    H                0.749518507648157     1.952127211477779     3.128161766164448
    C               -3.195741492351843     0.134727211477780    -1.791848233835552
    C               -3.698741492351843     1.566727211477779    -2.031848233835552
    H               -2.507741492352844     0.122727211477780    -0.947848233835552
    H               -4.040741492351844    -0.517272788522221    -1.569848233835552
    H               -2.683741492351844    -0.229272788522220    -2.680848233835552
    H               -4.214741492351843     1.923727211477779    -1.141848233835552
    H               -4.389741492351843     1.562727211477779    -2.871848233835552
    H               -2.889861492352844     2.279127211477780    -2.251538233835552

}
e, wfn = energy('scf', return_wfn=True)
gdma(wfn)
dmavals = variable('DMA DISTRIBUTED MULTIPOLES')
charges = np.array(dmavals)
print(charges)
np.save('SSI-135TRP-208ILE-1-dimer.npy', np.array(charges))--------------------------------------------------------------------------

*** tstart() called on ds3
*** at Sun Apr 26 23:42:48 2020

   => Loading Basis Set <=

    Name: CC-PVDZ
    Role: ORBITAL
    Keyword: BASIS
    atoms 1-9, 20-21   entry C          line   138 file /theoryfs2/ds/metcalf/miniconda2/envs/tf2gpu/share/psi4/basis/cc-pvdz.gbs 
    atoms 10           entry N          line   168 file /theoryfs2/ds/metcalf/miniconda2/envs/tf2gpu/share/psi4/basis/cc-pvdz.gbs 
    atoms 11-19, 22-27 entry H          line    22 file /theoryfs2/ds/metcalf/miniconda2/envs/tf2gpu/share/psi4/basis/cc-pvdz.gbs 


         ---------------------------------------------------------
                                   SCF
               by Justin Turney, Rob Parrish, Andy Simmonett
                          and Daniel G. A. Smith
                              RHF Reference
                        1 Threads,    500 MiB Core
         ---------------------------------------------------------

  ==> Geometry <==

    Molecular point group: c1
    Full point group: C1

    Geometry (in Angstrom), charge = 0, multiplicity = 1:

       Center              X                  Y                   Z               Mass       
    ------------   -----------------  -----------------  -----------------  -----------------
         C            1.639258507648     1.387727211478     2.812151766164    12.000000000000
         C            0.986258507647    -0.269272788522    -0.512848233836    12.000000000000
         C            0.724258507648    -0.140272788522     0.885151766164    12.000000000000
         C            1.592258507647     0.883727211478     1.397151766164    12.000000000000
         C            2.330258507648     1.327727211478     0.343151766164    12.000000000000
         C           -0.671741492352    -2.009272788522    -0.700848233836    12.000000000000
         C            0.297258507648    -1.192272788522    -1.308848233836    12.000000000000
         C           -0.945741492352    -1.898272788522     0.671151766164    12.000000000000
         C           -0.257741492353    -0.973272788522     1.466151766164    12.000000000000
         N            1.974258507647     0.643727211478    -0.820848233836    14.003074004430
         H           -1.218741492352    -2.732272788522    -1.289848233836     1.007825032230
         H            0.532258507648    -1.247272788522    -2.365848233836     1.007825032230
         H           -1.694741492352    -2.527272788522     1.137151766164     1.007825032230
         H           -0.506741492352    -0.926272788522     2.520151766164     1.007825032230
         H            2.366258507648     0.784727211478    -1.749848233836     1.007825032230
         H            3.063258507648     2.114727211478     0.506151766164     1.007825032230
         H            2.500258507648     2.048727211478     2.895151766164     1.007825032230
         H            1.794258507647     0.520727211478     3.458151766164     1.007825032230
         H            0.749518507648     1.952127211478     3.128161766164     1.007825032230
         C           -3.195741492352     0.134727211478    -1.791848233836    12.000000000000
         C           -3.698741492352     1.566727211478    -2.031848233836    12.000000000000
         H           -2.507741492353     0.122727211478    -0.947848233836     1.007825032230
         H           -4.040741492352    -0.517272788522    -1.569848233836     1.007825032230
         H           -2.683741492352    -0.229272788522    -2.680848233836     1.007825032230
         H           -4.214741492352     1.923727211478    -1.141848233836     1.007825032230
         H           -4.389741492352     1.562727211478    -2.871848233836     1.007825032230
         H           -2.889861492353     2.279127211478    -2.251538233836     1.007825032230

  Running in c1 symmetry.

  Rotational constants: A =      0.03884  B =      0.01723  C =      0.01626 [cm^-1]
  Rotational constants: A =   1164.48109  B =    516.43848  C =    487.57409 [MHz]
  Nuclear repulsion =  652.981719126697499

  Charge       = 0
  Multiplicity = 1
  Electrons    = 88
  Nalpha       = 44
  Nbeta        = 44

  ==> Algorithm <==

  SCF Algorithm Type is PK.
  DIIS enabled.
  MOM disabled.
  Fractional occupation disabled.
  Guess Type is SAD.
  Energy threshold   = 1.00e-06
  Density threshold  = 1.00e-10
  Integral threshold = 0.00e+00

  ==> Primary Basis <==

  Basis Set: CC-PVDZ
    Blend: CC-PVDZ
    Number of shells: 117
    Number of basis function: 243
    Number of Cartesian functions: 255
    Spherical Harmonics?: true
    Max angular momentum: 2

  ==> Pre-Iterations <==

   -------------------------------------------------------
    Irrep   Nso     Nmo     Nalpha   Nbeta   Ndocc  Nsocc
   -------------------------------------------------------
     A        243     243       0       0       0       0
   -------------------------------------------------------
    Total     243     243      44      44      44       0
   -------------------------------------------------------

  ==> Integral Setup <==

  Using integral reordering PK algorithm.
  Sizing the integral batches needed.
  Building batch lookup table.
   Calculation information:
      Number of atoms:                  27
      Number of AO shells:             117
      Number of primitives:            339
      Number of atomic orbitals:       255
      Number of basis functions:       243

      Integral cutoff                 1.00e-12
      Number of threads:                 1

	Batch   1 pq = [       0,    9405] index = [             0,44231715] size =     44231715
	Batch   2 pq = [    9405,   13301] index = [      44231715,88464951] size =     44233236
	Batch   3 pq = [   13301,   16290] index = [      88464951,132690195] size =     44225244
	Batch   4 pq = [   16290,   18810] index = [     132690195,176917455] size =     44227260
	Batch   5 pq = [   18810,   21030] index = [     176917455,221140965] size =     44223510
	Batch   6 pq = [   21030,   23037] index = [     221140965,265363203] size =     44222238
	Batch   7 pq = [   23037,   24883] index = [     265363203,309594286] size =     44231083
	Batch   8 pq = [   24883,   26601] index = [     309594286,353819901] size =     44225615
	Batch   9 pq = [   26601,   28214] index = [     353819901,398029005] size =     44209104
	Batch  10 pq = [   28214,   29646] index = [     398029005,439457481] size =     41428476
  Task number: 40
  Buffer size: 11059200
  Buffer per thread: 2
  We computed 21810340 shell quartets total.
  Whereas there are 23829156 unique shell quartets.

  ==> DiskJK: Disk-Based J/K Matrices <==

    J tasked:                  Yes
    K tasked:                  Yes
    wK tasked:                  No
    Memory [MiB]:              375
    Schwarz Cutoff:          1E-12

    OpenMP threads:              1

  Minimum eigenvalue in the overlap matrix is 2.5648031776E-04.
  Using Symmetric Orthogonalization.

  SCF Guess: Superposition of Atomic Densities via on-the-fly atomic UHF.

  ==> Iterations <==

                        Total Energy        Delta E     RMS |[F,P]|

   @RHF iter SAD:  -478.83678459956036   -4.78837e+02   0.00000e+00 
   @RHF iter   1:  -479.48771415091261   -6.50930e-01   2.58084e-03 DIIS
   @RHF iter   2:  -479.71664683366305   -2.28933e-01   1.15142e-03 DIIS
   @RHF iter   3:  -479.75801000713579   -4.13632e-02   3.07164e-04 DIIS
   @RHF iter   4:  -479.76188663707455   -3.87663e-03   1.42605e-04 DIIS
   @RHF iter   5:  -479.76257107763280   -6.84441e-04   2.00092e-05 DIIS
   @RHF iter   6:  -479.76260233858443   -3.12610e-05   9.39061e-06 DIIS
   @RHF iter   7:  -479.76260897666884   -6.63808e-06   4.10624e-06 DIIS
   @RHF iter   8:  -479.76261100860961   -2.03194e-06   1.60357e-06 DIIS
   @RHF iter   9:  -479.76261140989664   -4.01287e-07   7.08825e-07 DIIS
   @RHF iter  10:  -479.76261148872288   -7.88262e-08   3.33834e-07 DIIS
   @RHF iter  11:  -479.76261150803037   -1.93075e-08   1.19409e-07 DIIS
   @RHF iter  12:  -479.76261151046856   -2.43818e-09   4.06004e-08 DIIS
   @RHF iter  13:  -479.76261151064688   -1.78318e-10   1.20463e-08 DIIS
   @RHF iter  14:  -479.76261151065762   -1.07434e-11   5.80351e-09 DIIS
   @RHF iter  15:  -479.76261151066331   -5.68434e-12   2.99075e-09 DIIS
   @RHF iter  16:  -479.76261151066240    9.09495e-13   1.16411e-09 DIIS
   @RHF iter  17:  -479.76261151066421   -1.81899e-12   4.70007e-10 DIIS
   @RHF iter  18:  -479.76261151066581   -1.59162e-12   1.79889e-10 DIIS
   @RHF iter  19:  -479.76261151066541    3.97904e-13   6.57135e-11 DIIS
  Energy and wave function converged.


  ==> Post-Iterations <==

    Orbital Energies [Eh]
    ---------------------

    Doubly Occupied:                                                      

       1A    -15.604414     2A    -11.268601     3A    -11.267522  
       4A    -11.234489     5A    -11.234035     6A    -11.233138  
       7A    -11.229220     8A    -11.223866     9A    -11.223055  
      10A    -11.219525    11A    -11.208712    12A    -11.203852  
      13A     -1.286387    14A     -1.122093    15A     -1.073200  
      16A     -1.005495    17A     -0.993469    18A     -0.985074  
      19A     -0.931612    20A     -0.835915    21A     -0.827997  
      22A     -0.803356    23A     -0.749299    24A     -0.716439  
      25A     -0.664818    26A     -0.638507    27A     -0.598132  
      28A     -0.590830    29A     -0.590187    30A     -0.587379  
      31A     -0.583908    32A     -0.564438    33A     -0.553071  
      34A     -0.537209    35A     -0.527822    36A     -0.495316  
      37A     -0.490514    38A     -0.479455    39A     -0.475881  
      40A     -0.468918    41A     -0.452381    42A     -0.371252  
      43A     -0.295593    44A     -0.275942  

    Virtual:                                                              

      45A      0.121693    46A      0.166187    47A      0.179180  
      48A      0.185781    49A      0.193137    50A      0.206457  
      51A      0.221478    52A      0.227782    53A      0.229747  
      54A      0.251992    55A      0.267486    56A      0.270222  
      57A      0.273917    58A      0.277506    59A      0.285077  
      60A      0.288062    61A      0.297979    62A      0.307012  
      63A      0.369153    64A      0.375910    65A      0.396890  
      66A      0.407123    67A      0.417562    68A      0.438486  
      69A      0.470964    70A      0.476995    71A      0.496345  
      72A      0.511093    73A      0.586346    74A      0.592625  
      75A      0.602048    76A      0.608838    77A      0.613343  
      78A      0.633624    79A      0.634503    80A      0.655677  
      81A      0.664631    82A      0.680013    83A      0.699962  
      84A      0.712364    85A      0.719166    86A      0.728629  
      87A      0.735468    88A      0.743114    89A      0.756365  
      90A      0.758694    91A      0.770673    92A      0.783120  
      93A      0.795861    94A      0.803338    95A      0.830603  
      96A      0.835950    97A      0.860449    98A      0.868250  
      99A      0.881929   100A      0.883051   101A      0.890396  
     102A      0.896618   103A      0.902221   104A      0.906171  
     105A      0.910007   106A      0.910347   107A      0.927563  
     108A      0.935536   109A      0.944253   110A      0.951107  
     111A      0.957525   112A      0.965150   113A      0.974567  
     114A      0.982184   115A      1.007473   116A      1.039820  
     117A      1.066545   118A      1.078281   119A      1.090553  
     120A      1.122226   121A      1.124598   122A      1.132249  
     123A      1.136638   124A      1.142420   125A      1.166758  
     126A      1.179479   127A      1.209450   128A      1.218876  
     129A      1.226463   130A      1.235538   131A      1.246199  
     132A      1.264527   133A      1.268382   134A      1.289047  
     135A      1.311077   136A      1.325610   137A      1.333076  
     138A      1.352524   139A      1.358791   140A      1.390674  
     141A      1.437998   142A      1.480402   143A      1.490996  
     144A      1.514156   145A      1.550478   146A      1.570745  
     147A      1.585349   148A      1.597322   149A      1.616620  
     150A      1.638253   151A      1.647538   152A      1.677546  
     153A      1.687288   154A      1.696549   155A      1.707022  
     156A      1.742561   157A      1.767800   158A      1.773130  
     159A      1.785740   160A      1.813282   161A      1.825499  
     162A      1.832391   163A      1.866579   164A      1.879480  
     165A      1.882264   166A      1.893362   167A      1.895758  
     168A      1.905506   169A      1.908747   170A      1.922456  
     171A      1.926468   172A      1.942216   173A      1.954937  
     174A      1.956208   175A      1.962414   176A      1.964434  
     177A      1.976955   178A      1.982635   179A      1.989647  
     180A      1.996557   181A      2.008390   182A      2.028541  
     183A      2.043470   184A      2.069290   185A      2.073946  
     186A      2.084990   187A      2.091973   188A      2.102924  
     189A      2.104910   190A      2.122594   191A      2.125750  
     192A      2.139716   193A      2.142823   194A      2.153917  
     195A      2.183080   196A      2.223803   197A      2.233080  
     198A      2.282774   199A      2.297872   200A      2.310133  
     201A      2.316079   202A      2.318931   203A      2.336958  
     204A      2.350201   205A      2.380473   206A      2.406567  
     207A      2.440742   208A      2.461419   209A      2.470541  
     210A      2.481556   211A      2.524010   212A      2.558164  
     213A      2.564864   214A      2.589788   215A      2.592796  
     216A      2.628088   217A      2.639209   218A      2.663719  
     219A      2.689707   220A      2.756672   221A      2.771749  
     222A      2.775325   223A      2.777793   224A      2.789355  
     225A      2.808318   226A      2.829372   227A      2.866002  
     228A      2.867986   229A      2.873773   230A      2.888965  
     231A      2.903588   232A      2.949298   233A      2.964009  
     234A      2.983158   235A      2.996648   236A      3.021674  
     237A      3.065536   238A      3.091636   239A      3.187717  
     240A      3.279176   241A      3.344685   242A      3.716757  
     243A      3.918584  

    Final Occupation by Irrep:
              A 
    DOCC [    44 ]

  @RHF Final Energy:  -479.76261151066541

   => Energetics <=

    Nuclear Repulsion Energy =            652.9817191266974987
    One-Electron Energy =               -1944.0440229197520239
    Two-Electron Energy =                 811.2996922823890600
    Total Energy =                       -479.7626115106654652

Computation Completed


Properties will be evaluated at   0.000000,   0.000000,   0.000000 [a0]

Properties computed using the SCF density matrix

  Nuclear Dipole Moment: [e a0]
     X:   -12.3250      Y:     4.8071      Z:    -3.0204

  Electronic Dipole Moment: [e a0]
     X:    12.8927      Y:    -4.4296      Z:     2.6912

  Dipole Moment: [e a0]
     X:     0.5677      Y:     0.3775      Z:    -0.3292     Total:     0.7571

  Dipole Moment: [D]
     X:     1.4430      Y:     0.9595      Z:    -0.8368     Total:     1.9244


*** tstop() called on ds3 at Sun Apr 26 23:55:49 2020
Module time:
	user time   =     170.97 seconds =       2.85 minutes
	system time =      73.49 seconds =       1.22 minutes
	total time  =        781 seconds =      13.02 minutes
Total time:
	user time   =     170.97 seconds =       2.85 minutes
	system time =      73.49 seconds =       1.22 minutes
	total time  =        781 seconds =      13.02 minutes
                                     G D M A

                                 by Anthony Stone

                           version 2.2.06, 22 June 2011

               Distributed Multipoles from Gaussian wavefunctions


Starting at 23:55:49 on 26 Apr 2020 


Using SCF density matrix from file ./SSI/SSI-135TRP-208ILE-1-dimer.test.3040.fchk


                         Distributed Multipole Analysis

Standard DMA

Positions and radii in angstrom
Multipole moments in atomic units, ea_0^k for rank k

C          x =  1.639259  y =  1.387727  z =  2.812152 angstrom
           Maximum rank =  0   Radius =  0.650 angstrom
                   Q00  =  -0.199852

C          x =  0.986259  y = -0.269273  z = -0.512848 angstrom
           Maximum rank =  0   Radius =  0.650 angstrom
                   Q00  =   0.233018

C          x =  0.724259  y = -0.140273  z =  0.885152 angstrom
           Maximum rank =  0   Radius =  0.650 angstrom
                   Q00  =  -0.046422

C          x =  1.592259  y =  0.883727  z =  1.397152 angstrom
           Maximum rank =  0   Radius =  0.650 angstrom
                   Q00  =  -0.121106

C          x =  2.330259  y =  1.327727  z =  0.343152 angstrom
           Maximum rank =  0   Radius =  0.650 angstrom
                   Q00  =   0.071623

C          x = -0.671741  y = -2.009273  z = -0.700848 angstrom
           Maximum rank =  0   Radius =  0.650 angstrom
                   Q00  =   0.000608

C          x =  0.297259  y = -1.192273  z = -1.308848 angstrom
           Maximum rank =  0   Radius =  0.650 angstrom
                   Q00  =  -0.123638

C          x = -0.945741  y = -1.898273  z =  0.671152 angstrom
           Maximum rank =  0   Radius =  0.650 angstrom
                   Q00  =  -0.093387

C          x = -0.257741  y = -0.973273  z =  1.466152 angstrom
           Maximum rank =  0   Radius =  0.650 angstrom
                   Q00  =  -0.105418

N          x =  1.974259  y =  0.643727  z = -0.820848 angstrom
           Maximum rank =  0   Radius =  0.650 angstrom
                   Q00  =  -0.513719

H          x = -1.218741  y = -2.732273  z = -1.289848 angstrom
           Maximum rank =  0   Radius =  0.325 angstrom
                   Q00  =   0.068515

H          x =  0.532259  y = -1.247273  z = -2.365848 angstrom
           Maximum rank =  0   Radius =  0.325 angstrom
                   Q00  =   0.074215

H          x = -1.694741  y = -2.527273  z =  1.137152 angstrom
           Maximum rank =  0   Radius =  0.325 angstrom
                   Q00  =   0.062409

H          x = -0.506741  y = -0.926273  z =  2.520152 angstrom
           Maximum rank =  0   Radius =  0.325 angstrom
                   Q00  =   0.068165

H          x =  2.366259  y =  0.784727  z = -1.749848 angstrom
           Maximum rank =  0   Radius =  0.325 angstrom
                   Q00  =   0.222663

H          x =  3.063259  y =  2.114727  z =  0.506152 angstrom
           Maximum rank =  0   Radius =  0.325 angstrom
                   Q00  =   0.106160

H          x =  2.500259  y =  2.048727  z =  2.895152 angstrom
           Maximum rank =  0   Radius =  0.325 angstrom
                   Q00  =   0.101443

H          x =  1.794259  y =  0.520727  z =  3.458152 angstrom
           Maximum rank =  0   Radius =  0.325 angstrom
                   Q00  =   0.099418

H          x =  0.749519  y =  1.952127  z =  3.128162 angstrom
           Maximum rank =  0   Radius =  0.325 angstrom
                   Q00  =   0.100400

C          x = -3.195741  y =  0.134727  z = -1.791848 angstrom
           Maximum rank =  0   Radius =  0.650 angstrom
                   Q00  =  -0.231294

C          x = -3.698741  y =  1.566727  z = -2.031848 angstrom
           Maximum rank =  0   Radius =  0.650 angstrom
                   Q00  =  -0.244284

H          x = -2.507741  y =  0.122727  z = -0.947848 angstrom
           Maximum rank =  0   Radius =  0.325 angstrom
                   Q00  =   0.097446

H          x = -4.040741  y = -0.517273  z = -1.569848 angstrom
           Maximum rank =  0   Radius =  0.325 angstrom
                   Q00  =   0.073097

H          x = -2.683741  y = -0.229273  z = -2.680848 angstrom
           Maximum rank =  0   Radius =  0.325 angstrom
                   Q00  =   0.072219

H          x = -4.214741  y =  1.923727  z = -1.141848 angstrom
           Maximum rank =  0   Radius =  0.325 angstrom
                   Q00  =   0.077569

H          x = -4.389741  y =  1.562727  z = -2.871848 angstrom
           Maximum rank =  0   Radius =  0.325 angstrom
                   Q00  =   0.072803

H          x = -2.889861  y =  2.279127  z = -2.251538 angstrom
           Maximum rank =  0   Radius =  0.325 angstrom
                   Q00  =   0.077351

Total multipoles referred to origin at
           x =   0.000000,  y =    0.000000,  z =    0.000000 angstrom
                   Q00  =  -0.000000

Finished at 23:55:49 on 26 Apr 2020 

  DMA results are available in the Python driver through the
	  variable('DMA DISTRIBUTED MULTIPOLES')
  and
	  variable('DMA TOTAL MULTIPOLES')
  commands.


    Psi4 stopped on: Sunday, 26 April 2020 11:55PM
    Psi4 wall time for execution: 0:13:00.82

*** Psi4 exiting successfully. Buy a developer a beer!
