
    -----------------------------------------------------------------------
          Psi4: An Open-Source Ab Initio Electronic Structure Package
                               Psi4 1.3.2 release

                         Git: Rev {HEAD} ecbda83 


    R. M. Parrish, L. A. Burns, D. G. A. Smith, A. C. Simmonett,
    A. E. DePrince III, E. G. Hohenstein, U. Bozkaya, A. Yu. Sokolov,
    R. Di Remigio, R. M. Richard, J. F. Gonthier, A. M. James,
    H. R. McAlexander, A. Kumar, M. Saitow, X. Wang, B. P. Pritchard,
    P. Verma, H. F. Schaefer III, K. Patkowski, R. A. King, E. F. Valeev,
    F. A. Evangelista, J. M. Turney, T. D. Crawford, and C. D. Sherrill,
    J. Chem. Theory Comput. 13(7) pp 3185--3197 (2017).
    (doi: 10.1021/acs.jctc.7b00174)


                         Additional Contributions by
    P. Kraus, H. Kruse, M. H. Lechner, M. C. Schieber, R. A. Shaw,
    A. Alenaizan, R. Galvelis, Z. L. Glick, S. Lehtola, and J. P. Misiewicz

    -----------------------------------------------------------------------


    Psi4 started on: Sunday, 26 April 2020 05:13PM

    Process ID: 17962
    Host:       ds3
    PSIDATADIR: /theoryfs2/ds/metcalf/miniconda2/envs/tf2gpu/share/psi4
    Memory:     500.0 MiB
    Threads:    1
    
  ==> Input File <==

--------------------------------------------------------------------------
import numpy as np
set {scf_type pk
basis cc-pvdz
d_convergence 10
gdma_switch   0
gdma_limit    0
gdma_origin   [ 0.0,  0.0,  0.0 ]
}
molecule test {
    units Angstrom
    0 1
    --
    0 1
    C                1.168613827421471    -4.431516958299309    -2.276544651470932
    C                0.310613827421471    -2.259516958299309    -1.163544651470932
    C                0.145613827421471    -3.389516958299309    -1.904544651470932
    C               -1.731386172578529    -2.255516958299309    -1.911544651470932
    N               -0.876386172578529    -1.574516958299309    -1.165544651470932
    N               -1.150386172578529    -3.368516958299309    -2.356544651470931
    H                1.231613827421471    -1.955516958299309    -0.684544651470932
    H               -1.055386172578529    -0.692516958299309    -0.722544651470932
    H                2.125613827421471    -4.074516958299309    -1.895544651470932
    H                1.239613827421471    -4.477516958299308    -3.363544651470932
    H               -2.748386172578528    -1.954516958299308    -2.128544651470932
    H                0.995384827421471    -5.443577958299309    -1.881924651470932
    C                2.219613827421472     3.763483041700691     2.874455348529068
    C                0.696613827421471     1.193483041700691     0.485455348529068
    C               -0.657386172578529     1.431483041700691     0.660455348529068
    C                1.646613827421471     1.962483041700692     1.185455348529068
    C                1.238613827421471     2.964483041700691     2.064455348529068
    C               -1.068386172578529     2.413483041700691     1.541455348529068
    C               -0.126386172578529     3.170483041700691     2.220455348529069
    O               -1.601386172578529     0.710483041700691    -0.012544651470932
    H                1.020613827421471     0.426483041700691    -0.200544651470932
    H                2.697613827421471     1.762483041700692     1.038455348529068
    H               -2.121386172578529     2.602483041700691     1.694455348529068
    H               -2.492386172578529     1.001483041700691     0.217455348529068
    H                1.766613827421471     4.716483041700692     3.153455348529068
    H                3.085613827421472     3.981483041700691     2.257455348529068
    H               -0.469386172578529     3.935483041700691     2.905455348529068
    H                2.545103827421471     3.241553041700691     3.786405348529069

}
e, wfn = energy('scf', return_wfn=True)
gdma(wfn)
dmavals = variable('DMA DISTRIBUTED MULTIPOLES')
charges = np.array(dmavals)
print(charges)
np.save('SSI-085HIE-101TYR-1-dimer.npy', np.array(charges))--------------------------------------------------------------------------

*** tstart() called on ds3
*** at Sun Apr 26 17:13:53 2020

   => Loading Basis Set <=

    Name: CC-PVDZ
    Role: ORBITAL
    Keyword: BASIS
    atoms 1-4, 13-19  entry C          line   138 file /theoryfs2/ds/metcalf/miniconda2/envs/tf2gpu/share/psi4/basis/cc-pvdz.gbs 
    atoms 5-6         entry N          line   168 file /theoryfs2/ds/metcalf/miniconda2/envs/tf2gpu/share/psi4/basis/cc-pvdz.gbs 
    atoms 7-12, 21-28 entry H          line    22 file /theoryfs2/ds/metcalf/miniconda2/envs/tf2gpu/share/psi4/basis/cc-pvdz.gbs 
    atoms 20          entry O          line   198 file /theoryfs2/ds/metcalf/miniconda2/envs/tf2gpu/share/psi4/basis/cc-pvdz.gbs 


         ---------------------------------------------------------
                                   SCF
               by Justin Turney, Rob Parrish, Andy Simmonett
                          and Daniel G. A. Smith
                              RHF Reference
                        1 Threads,    500 MiB Core
         ---------------------------------------------------------

  ==> Geometry <==

    Molecular point group: c1
    Full point group: C1

    Geometry (in Angstrom), charge = 0, multiplicity = 1:

       Center              X                  Y                   Z               Mass       
    ------------   -----------------  -----------------  -----------------  -----------------
         C            1.168613827421    -4.431516958299    -2.276544651471    12.000000000000
         C            0.310613827421    -2.259516958299    -1.163544651471    12.000000000000
         C            0.145613827421    -3.389516958299    -1.904544651471    12.000000000000
         C           -1.731386172579    -2.255516958299    -1.911544651471    12.000000000000
         N           -0.876386172579    -1.574516958299    -1.165544651471    14.003074004430
         N           -1.150386172579    -3.368516958299    -2.356544651471    14.003074004430
         H            1.231613827421    -1.955516958299    -0.684544651471     1.007825032230
         H           -1.055386172579    -0.692516958299    -0.722544651471     1.007825032230
         H            2.125613827421    -4.074516958299    -1.895544651471     1.007825032230
         H            1.239613827421    -4.477516958299    -3.363544651471     1.007825032230
         H           -2.748386172579    -1.954516958299    -2.128544651471     1.007825032230
         H            0.995384827421    -5.443577958299    -1.881924651471     1.007825032230
         C            2.219613827421     3.763483041701     2.874455348529    12.000000000000
         C            0.696613827421     1.193483041701     0.485455348529    12.000000000000
         C           -0.657386172579     1.431483041701     0.660455348529    12.000000000000
         C            1.646613827421     1.962483041701     1.185455348529    12.000000000000
         C            1.238613827421     2.964483041701     2.064455348529    12.000000000000
         C           -1.068386172579     2.413483041701     1.541455348529    12.000000000000
         C           -0.126386172579     3.170483041701     2.220455348529    12.000000000000
         O           -1.601386172579     0.710483041701    -0.012544651471    15.994914619570
         H            1.020613827421     0.426483041701    -0.200544651471     1.007825032230
         H            2.697613827421     1.762483041701     1.038455348529     1.007825032230
         H           -2.121386172579     2.602483041701     1.694455348529     1.007825032230
         H           -2.492386172579     1.001483041701     0.217455348529     1.007825032230
         H            1.766613827421     4.716483041701     3.153455348529     1.007825032230
         H            3.085613827421     3.981483041701     2.257455348529     1.007825032230
         H           -0.469386172579     3.935483041701     2.905455348529     1.007825032230
         H            2.545103827421     3.241553041701     3.786405348529     1.007825032230

  Running in c1 symmetry.

  Rotational constants: A =      0.05661  B =      0.00834  C =      0.00733 [cm^-1]
  Rotational constants: A =   1696.98325  B =    250.08464  C =    219.78823 [MHz]
  Nuclear repulsion =  805.085585217881544

  Charge       = 0
  Multiplicity = 1
  Electrons    = 102
  Nalpha       = 51
  Nbeta        = 51

  ==> Algorithm <==

  SCF Algorithm Type is PK.
  DIIS enabled.
  MOM disabled.
  Fractional occupation disabled.
  Guess Type is SAD.
  Energy threshold   = 1.00e-06
  Density threshold  = 1.00e-10
  Integral threshold = 0.00e+00

  ==> Primary Basis <==

  Basis Set: CC-PVDZ
    Blend: CC-PVDZ
    Number of shells: 126
    Number of basis function: 266
    Number of Cartesian functions: 280
    Spherical Harmonics?: true
    Max angular momentum: 2

  ==> Pre-Iterations <==

   -------------------------------------------------------
    Irrep   Nso     Nmo     Nalpha   Nbeta   Ndocc  Nsocc
   -------------------------------------------------------
     A        266     266       0       0       0       0
   -------------------------------------------------------
    Total     266     266      51      51      51       0
   -------------------------------------------------------

  ==> Integral Setup <==

  Using integral reordering PK algorithm.
  Sizing the integral batches needed.
  Building batch lookup table.
   Calculation information:
      Number of atoms:                  28
      Number of AO shells:             126
      Number of primitives:            378
      Number of atomic orbitals:       280
      Number of basis functions:       266

      Integral cutoff                 1.00e-12
      Number of threads:                 1

	Batch   1 pq = [       0,    9405] index = [             0,44231715] size =     44231715
	Batch   2 pq = [    9405,   13301] index = [      44231715,88464951] size =     44233236
	Batch   3 pq = [   13301,   16290] index = [      88464951,132690195] size =     44225244
	Batch   4 pq = [   16290,   18810] index = [     132690195,176917455] size =     44227260
	Batch   5 pq = [   18810,   21030] index = [     176917455,221140965] size =     44223510
	Batch   6 pq = [   21030,   23037] index = [     221140965,265363203] size =     44222238
	Batch   7 pq = [   23037,   24883] index = [     265363203,309594286] size =     44231083
	Batch   8 pq = [   24883,   26601] index = [     309594286,353819901] size =     44225615
	Batch   9 pq = [   26601,   28214] index = [     353819901,398029005] size =     44209104
	Batch  10 pq = [   28214,   29740] index = [     398029005,442248670] size =     44219665
	Batch  11 pq = [   29740,   31191] index = [     442248670,486454836] size =     44206166
	Batch  12 pq = [   31191,   32578] index = [     486454836,530679331] size =     44224495
	Batch  13 pq = [   32578,   33908] index = [     530679331,574893186] size =     44213855
	Batch  14 pq = [   33908,   35188] index = [     574893186,619115266] size =     44222080
	Batch  15 pq = [   35188,   35511] index = [     619115266,630533316] size =     11418050
  Task number: 58
  Buffer size: 11059200
  Buffer per thread: 2
  We computed 24637393 shell quartets total.
  Whereas there are 32012001 unique shell quartets.

  ==> DiskJK: Disk-Based J/K Matrices <==

    J tasked:                  Yes
    K tasked:                  Yes
    wK tasked:                  No
    Memory [MiB]:              375
    Schwarz Cutoff:          1E-12

    OpenMP threads:              1

  Minimum eigenvalue in the overlap matrix is 3.0590892705E-04.
  Using Symmetric Orthogonalization.

  SCF Guess: Superposition of Atomic Densities via on-the-fly atomic UHF.

  ==> Iterations <==

                        Total Energy        Delta E     RMS |[F,P]|

   @RHF iter SAD:  -607.73554633051299   -6.07736e+02   0.00000e+00 
   @RHF iter   1:  -608.18978204934967   -4.54236e-01   2.56770e-03 DIIS
   @RHF iter   2:  -608.43941084234348   -2.49629e-01   1.20898e-03 DIIS
   @RHF iter   3:  -608.48835661812348   -4.89458e-02   3.39608e-04 DIIS
   @RHF iter   4:  -608.49332747793926   -4.97086e-03   1.42166e-04 DIIS
   @RHF iter   5:  -608.49412917009806   -8.01692e-04   2.05091e-05 DIIS
   @RHF iter   6:  -608.49415634804814   -2.71780e-05   8.71795e-06 DIIS
   @RHF iter   7:  -608.49416095347044   -4.60542e-06   2.89387e-06 DIIS
   @RHF iter   8:  -608.49416176629802   -8.12828e-07   1.17172e-06 DIIS
   @RHF iter   9:  -608.49416192512069   -1.58823e-07   5.11380e-07 DIIS
   @RHF iter  10:  -608.49416195533502   -3.02143e-08   1.97222e-07 DIIS
   @RHF iter  11:  -608.49416196081665   -5.48164e-09   6.63409e-08 DIIS
   @RHF iter  12:  -608.49416196139487   -5.78211e-10   2.90079e-08 DIIS
   @RHF iter  13:  -608.49416196147308   -7.82165e-11   8.99181e-09 DIIS
   @RHF iter  14:  -608.49416196147899   -5.91172e-12   3.95214e-09 DIIS
   @RHF iter  15:  -608.49416196148275   -3.75167e-12   1.75539e-09 DIIS
   @RHF iter  16:  -608.49416196148843   -5.68434e-12   8.28834e-10 DIIS
   @RHF iter  17:  -608.49416196148445    3.97904e-12   3.44704e-10 DIIS
   @RHF iter  18:  -608.49416196148411    3.41061e-13   1.11681e-10 DIIS
   @RHF iter  19:  -608.49416196148354    5.68434e-13   5.22205e-11 DIIS
  Energy and wave function converged.


  ==> Post-Iterations <==

    Orbital Energies [Eh]
    ---------------------

    Doubly Occupied:                                                      

       1A    -20.622029     2A    -15.586237     3A    -15.509176  
       4A    -11.320576     5A    -11.271425     6A    -11.256875  
       7A    -11.253389     8A    -11.252035     9A    -11.251136  
      10A    -11.249984    11A    -11.239986    12A    -11.230678  
      13A    -11.224567    14A    -11.214336    15A     -1.441331  
      16A     -1.321685    17A     -1.171025    18A     -1.136054  
      19A     -1.059095    20A     -1.034992    21A     -1.012712  
      22A     -0.945809    23A     -0.924849    24A     -0.868611  
      25A     -0.825473    26A     -0.806155    27A     -0.759742  
      28A     -0.744280    29A     -0.733259    30A     -0.691053  
      31A     -0.659955    32A     -0.626564    33A     -0.622432  
      34A     -0.610102    35A     -0.602794    36A     -0.586619  
      37A     -0.583844    38A     -0.581342    39A     -0.570763  
      40A     -0.545683    41A     -0.538455    42A     -0.526420  
      43A     -0.515223    44A     -0.506739    45A     -0.502172  
      46A     -0.489109    47A     -0.391978    48A     -0.358505  
      49A     -0.354145    50A     -0.325845    51A     -0.290959  

    Virtual:                                                              

      52A      0.111866    53A      0.138510    54A      0.154723  
      55A      0.173519    56A      0.195950    57A      0.203642  
      58A      0.211604    59A      0.216343    60A      0.231382  
      61A      0.238880    62A      0.246623    63A      0.250373  
      64A      0.262061    65A      0.271362    66A      0.281078  
      67A      0.308787    68A      0.325584    69A      0.351126  
      70A      0.355290    71A      0.364153    72A      0.392809  
      73A      0.412432    74A      0.426685    75A      0.434958  
      76A      0.464380    77A      0.473776    78A      0.488508  
      79A      0.492606    80A      0.509146    81A      0.541606  
      82A      0.597612    83A      0.613737    84A      0.624074  
      85A      0.629198    86A      0.637407    87A      0.651496  
      88A      0.653289    89A      0.667370    90A      0.669858  
      91A      0.690290    92A      0.694283    93A      0.709856  
      94A      0.714492    95A      0.718959    96A      0.726703  
      97A      0.734604    98A      0.750680    99A      0.759781  
     100A      0.766948   101A      0.777821   102A      0.782902  
     103A      0.793009   104A      0.794328   105A      0.823350  
     106A      0.833970   107A      0.837772   108A      0.850338  
     109A      0.854239   110A      0.864723   111A      0.871737  
     112A      0.875079   113A      0.878408   114A      0.889877  
     115A      0.898708   116A      0.910705   117A      0.920037  
     118A      0.926080   119A      0.930169   120A      0.939551  
     121A      0.950771   122A      0.960152   123A      0.974820  
     124A      0.991279   125A      1.010506   126A      1.019367  
     127A      1.047739   128A      1.057928   129A      1.098967  
     130A      1.108647   131A      1.118868   132A      1.125002  
     133A      1.140963   134A      1.146072   135A      1.156287  
     136A      1.165998   137A      1.182960   138A      1.201001  
     139A      1.213958   140A      1.224528   141A      1.231124  
     142A      1.244370   143A      1.271395   144A      1.281380  
     145A      1.288720   146A      1.298052   147A      1.303556  
     148A      1.328157   149A      1.334136   150A      1.339593  
     151A      1.351544   152A      1.354665   153A      1.395141  
     154A      1.414249   155A      1.447825   156A      1.480533  
     157A      1.486278   158A      1.492801   159A      1.507229  
     160A      1.537927   161A      1.542654   162A      1.566696  
     163A      1.598078   164A      1.608342   165A      1.643769  
     166A      1.660553   167A      1.665537   168A      1.690025  
     169A      1.699262   170A      1.711814   171A      1.712575  
     172A      1.726222   173A      1.766634   174A      1.783904  
     175A      1.795838   176A      1.796909   177A      1.818712  
     178A      1.840367   179A      1.844310   180A      1.864977  
     181A      1.874668   182A      1.878677   183A      1.887480  
     184A      1.898213   185A      1.905755   186A      1.912282  
     187A      1.919985   188A      1.930077   189A      1.948300  
     190A      1.953732   191A      1.959467   192A      1.963821  
     193A      1.972514   194A      1.994358   195A      2.009382  
     196A      2.016683   197A      2.030942   198A      2.041403  
     199A      2.044683   200A      2.045451   201A      2.053933  
     202A      2.075247   203A      2.110594   204A      2.130958  
     205A      2.133679   206A      2.146655   207A      2.151173  
     208A      2.189361   209A      2.193939   210A      2.212925  
     211A      2.225890   212A      2.239149   213A      2.251413  
     214A      2.263703   215A      2.283027   216A      2.288519  
     217A      2.309829   218A      2.333932   219A      2.353009  
     220A      2.389190   221A      2.409397   222A      2.413458  
     223A      2.440198   224A      2.461914   225A      2.469584  
     226A      2.473495   227A      2.497638   228A      2.516726  
     229A      2.535302   230A      2.570296   231A      2.575177  
     232A      2.595679   233A      2.632332   234A      2.694721  
     235A      2.719328   236A      2.742525   237A      2.755676  
     238A      2.759515   239A      2.776608   240A      2.785684  
     241A      2.795466   242A      2.804668   243A      2.829820  
     244A      2.837536   245A      2.843886   246A      2.893644  
     247A      2.917136   248A      2.928793   249A      2.951486  
     250A      2.967011   251A      2.998782   252A      3.051034  
     253A      3.074186   254A      3.093456   255A      3.113315  
     256A      3.216280   257A      3.260840   258A      3.270108  
     259A      3.297413   260A      3.317982   261A      3.497938  
     262A      3.575197   263A      3.629750   264A      3.917100  
     265A      3.971138   266A      4.162573  

    Final Occupation by Irrep:
              A 
    DOCC [    51 ]

  @RHF Final Energy:  -608.49416196148354

   => Energetics <=

    Nuclear Repulsion Energy =            805.0855852178815439
    One-Electron Energy =               -2423.6630909415948736
    Two-Electron Energy =                1010.0833437622297879
    Total Energy =                       -608.4941619614835417

Computation Completed


Properties will be evaluated at   0.000000,   0.000000,   0.000000 [a0]

Properties computed using the SCF density matrix

  Nuclear Dipole Moment: [e a0]
     X:     7.3300      Y:     2.8956      Z:     3.9250

  Electronic Dipole Moment: [e a0]
     X:    -7.3689      Y:    -0.7454      Z:    -2.5080

  Dipole Moment: [e a0]
     X:    -0.0389      Y:     2.1502      Z:     1.4170     Total:     2.5754

  Dipole Moment: [D]
     X:    -0.0988      Y:     5.4652      Z:     3.6016     Total:     6.5459


*** tstop() called on ds3 at Sun Apr 26 17:19:58 2020
Module time:
	user time   =     226.30 seconds =       3.77 minutes
	system time =     122.22 seconds =       2.04 minutes
	total time  =        365 seconds =       6.08 minutes
Total time:
	user time   =     226.30 seconds =       3.77 minutes
	system time =     122.22 seconds =       2.04 minutes
	total time  =        365 seconds =       6.08 minutes
                                     G D M A

                                 by Anthony Stone

                           version 2.2.06, 22 June 2011

               Distributed Multipoles from Gaussian wavefunctions


Starting at 17:19:58 on 26 Apr 2020 


Using SCF density matrix from file ./SSI/SSI-085HIE-101TYR-1-dimer.test.17962.fchk


                         Distributed Multipole Analysis

Standard DMA

Positions and radii in angstrom
Multipole moments in atomic units, ea_0^k for rank k

C          x =  1.168614  y = -4.431517  z = -2.276545 angstrom
           Maximum rank =  0   Radius =  0.650 angstrom
                   Q00  =  -0.189868

C          x =  0.310614  y = -2.259517  z = -1.163545 angstrom
           Maximum rank =  0   Radius =  0.650 angstrom
                   Q00  =  -0.014895

C          x =  0.145614  y = -3.389517  z = -1.904545 angstrom
           Maximum rank =  0   Radius =  0.650 angstrom
                   Q00  =   0.225522

C          x = -1.731386  y = -2.255517  z = -1.911545 angstrom
           Maximum rank =  0   Radius =  0.650 angstrom
                   Q00  =   0.465834

N          x = -0.876386  y = -1.574517  z = -1.165545 angstrom
           Maximum rank =  0   Radius =  0.650 angstrom
                   Q00  =  -0.516848

N          x = -1.150386  y = -3.368517  z = -2.356545 angstrom
           Maximum rank =  0   Radius =  0.650 angstrom
                   Q00  =  -0.784938

H          x =  1.231614  y = -1.955517  z = -0.684545 angstrom
           Maximum rank =  0   Radius =  0.325 angstrom
                   Q00  =   0.084986

H          x = -1.055386  y = -0.692517  z = -0.722545 angstrom
           Maximum rank =  0   Radius =  0.325 angstrom
                   Q00  =   0.309215

H          x =  2.125614  y = -4.074517  z = -1.895545 angstrom
           Maximum rank =  0   Radius =  0.325 angstrom
                   Q00  =   0.085867

H          x =  1.239614  y = -4.477517  z = -3.363545 angstrom
           Maximum rank =  0   Radius =  0.325 angstrom
                   Q00  =   0.106868

H          x = -2.748386  y = -1.954517  z = -2.128545 angstrom
           Maximum rank =  0   Radius =  0.325 angstrom
                   Q00  =   0.110709

H          x =  0.995385  y = -5.443578  z = -1.881925 angstrom
           Maximum rank =  0   Radius =  0.325 angstrom
                   Q00  =   0.103560

C          x =  2.219614  y =  3.763483  z =  2.874455 angstrom
           Maximum rank =  0   Radius =  0.650 angstrom
                   Q00  =  -0.201376

C          x =  0.696614  y =  1.193483  z =  0.485455 angstrom
           Maximum rank =  0   Radius =  0.650 angstrom
                   Q00  =  -0.131058

C          x = -0.657386  y =  1.431483  z =  0.660455 angstrom
           Maximum rank =  0   Radius =  0.650 angstrom
                   Q00  =   0.218947

C          x =  1.646614  y =  1.962483  z =  1.185455 angstrom
           Maximum rank =  0   Radius =  0.650 angstrom
                   Q00  =  -0.050167

C          x =  1.238614  y =  2.964483  z =  2.064455 angstrom
           Maximum rank =  0   Radius =  0.650 angstrom
                   Q00  =  -0.127441

C          x = -1.068386  y =  2.413483  z =  1.541455 angstrom
           Maximum rank =  0   Radius =  0.650 angstrom
                   Q00  =  -0.142544

C          x = -0.126386  y =  3.170483  z =  2.220455 angstrom
           Maximum rank =  0   Radius =  0.650 angstrom
                   Q00  =   0.065329

O          x = -1.601386  y =  0.710483  z = -0.012545 angstrom
           Maximum rank =  0   Radius =  0.650 angstrom
                   Q00  =  -0.656041

H          x =  1.020614  y =  0.426483  z = -0.200545 angstrom
           Maximum rank =  0   Radius =  0.325 angstrom
                   Q00  =   0.089308

H          x =  2.697614  y =  1.762483  z =  1.038455 angstrom
           Maximum rank =  0   Radius =  0.325 angstrom
                   Q00  =   0.071275

H          x = -2.121386  y =  2.602483  z =  1.694455 angstrom
           Maximum rank =  0   Radius =  0.325 angstrom
                   Q00  =   0.073717

H          x = -2.492386  y =  1.001483  z =  0.217455 angstrom
           Maximum rank =  0   Radius =  0.325 angstrom
                   Q00  =   0.427634

H          x =  1.766614  y =  4.716483  z =  3.153455 angstrom
           Maximum rank =  0   Radius =  0.325 angstrom
                   Q00  =   0.098910

H          x =  3.085614  y =  3.981483  z =  2.257455 angstrom
           Maximum rank =  0   Radius =  0.325 angstrom
                   Q00  =   0.102164

H          x = -0.469386  y =  3.935483  z =  2.905455 angstrom
           Maximum rank =  0   Radius =  0.325 angstrom
                   Q00  =   0.069409

H          x =  2.545104  y =  3.241553  z =  3.786405 angstrom
           Maximum rank =  0   Radius =  0.325 angstrom
                   Q00  =   0.105924

Total multipoles referred to origin at
           x =   0.000000,  y =    0.000000,  z =    0.000000 angstrom
                   Q00  =  -0.000000

Finished at 17:19:58 on 26 Apr 2020 

  DMA results are available in the Python driver through the
	  variable('DMA DISTRIBUTED MULTIPOLES')
  and
	  variable('DMA TOTAL MULTIPOLES')
  commands.


    Psi4 stopped on: Sunday, 26 April 2020 05:19PM
    Psi4 wall time for execution: 0:06:05.29

*** Psi4 exiting successfully. Buy a developer a beer!
