
    -----------------------------------------------------------------------
          Psi4: An Open-Source Ab Initio Electronic Structure Package
                               Psi4 1.3.2 release

                         Git: Rev {HEAD} ecbda83 


    R. M. Parrish, L. A. Burns, D. G. A. Smith, A. C. Simmonett,
    A. E. DePrince III, E. G. Hohenstein, U. Bozkaya, A. Yu. Sokolov,
    R. Di Remigio, R. M. Richard, J. F. Gonthier, A. M. James,
    H. R. McAlexander, A. Kumar, M. Saitow, X. Wang, B. P. Pritchard,
    P. Verma, H. F. Schaefer III, K. Patkowski, R. A. King, E. F. Valeev,
    F. A. Evangelista, J. M. Turney, T. D. Crawford, and C. D. Sherrill,
    J. Chem. Theory Comput. 13(7) pp 3185--3197 (2017).
    (doi: 10.1021/acs.jctc.7b00174)


                         Additional Contributions by
    P. Kraus, H. Kruse, M. H. Lechner, M. C. Schieber, R. A. Shaw,
    A. Alenaizan, R. Galvelis, Z. L. Glick, S. Lehtola, and J. P. Misiewicz

    -----------------------------------------------------------------------


    Psi4 started on: Tuesday, 28 April 2020 07:53PM

    Process ID: 12446
    Host:       ds3
    PSIDATADIR: /theoryfs2/ds/metcalf/miniconda2/envs/tf2gpu/share/psi4
    Memory:     500.0 MiB
    Threads:    1
    
  ==> Input File <==

--------------------------------------------------------------------------
import numpy as np
set {scf_type pk
basis cc-pvdz
d_convergence 10
gdma_switch   0
gdma_limit    0
gdma_origin   [ 0.0,  0.0,  0.0 ]
}
molecule test {
    units Angstrom
    0 1
    --
    0 1
    C                2.044199314948232     0.955009919948982     3.163205278406718
    C                0.956199314948232     1.761009919948982     1.043205278406718
    C                0.952199314948232     1.690009919948982     2.436205278406717
    C               -0.057800685051768     2.427009919948982     0.363205278406718
    C               -1.089800685051767     3.020009919948981     1.077205278406718
    C               -0.086800685051768     2.292009919948982     3.145205278406717
    C               -1.106800685051768     2.960009919948982     2.466205278406718
    H                1.762199314948232     1.306009919948982     0.484205278406718
    H               -0.044800685051768     2.476009919948982    -0.716794721593282
    H                2.444199314948233     0.175009919948982     2.518205278406718
    H                1.598199314948232     0.466009919948982     4.028205278406718
    H               -1.881800685051767     3.533009919948982     0.550205278406718
    H               -0.105800685051768     2.243009919948982     4.225205278406718
    H               -1.909800685051768     3.428009919948982     3.018205278406718
    H                2.865002314948233     1.598536919948982     3.512713278406717
    C               -2.515800685051767    -1.771990080051018    -2.828794721593282
    C                0.599199314948232    -1.497990080051018    -0.707794721593282
    C               -0.676800685051768    -1.287990080051018    -1.210794721593282
    C                1.443199314948232    -2.418990080051018    -1.310794721593282
    C               -1.120800685051768    -1.986990080051018    -2.324794721593282
    C                1.003199314948233    -3.122990080051018    -2.426794721593283
    C               -0.276800685051768    -2.910990080051018    -2.925794721593282
    H                0.934199314948232    -0.951990080051018     0.162205278406718
    H               -1.322800685051768    -0.566990080051018    -0.729794721593282
    H                2.438199314948233    -2.575990080051018    -0.923794721593282
    H                1.614199314948233    -3.831990080051018    -2.935794721593282
    H               -2.639800685051767    -2.259990080051018    -3.794794721593283
    H               -2.657800685051767    -0.704990080051018    -2.982794721593283
    H               -0.608800685051768    -3.460990080051018    -3.792794721593282
    H               -3.280054685051767    -2.148360080051018    -2.132905721593283

}
e, wfn = energy('scf', return_wfn=True)
gdma(wfn)
dmavals = variable('DMA DISTRIBUTED MULTIPOLES')
charges = np.array(dmavals)
print(charges)
np.save('SSI-022PHE-041PHE-1-dimer.npy', np.array(charges))--------------------------------------------------------------------------

*** tstart() called on ds3
*** at Tue Apr 28 19:53:13 2020

   => Loading Basis Set <=

    Name: CC-PVDZ
    Role: ORBITAL
    Keyword: BASIS
    atoms 1-7, 16-22  entry C          line   138 file /theoryfs2/ds/metcalf/miniconda2/envs/tf2gpu/share/psi4/basis/cc-pvdz.gbs 
    atoms 8-15, 23-30 entry H          line    22 file /theoryfs2/ds/metcalf/miniconda2/envs/tf2gpu/share/psi4/basis/cc-pvdz.gbs 


         ---------------------------------------------------------
                                   SCF
               by Justin Turney, Rob Parrish, Andy Simmonett
                          and Daniel G. A. Smith
                              RHF Reference
                        1 Threads,    500 MiB Core
         ---------------------------------------------------------

  ==> Geometry <==

    Molecular point group: c1
    Full point group: C1

    Geometry (in Angstrom), charge = 0, multiplicity = 1:

       Center              X                  Y                   Z               Mass       
    ------------   -----------------  -----------------  -----------------  -----------------
         C            2.044199314948     0.955009919949     3.163205278407    12.000000000000
         C            0.956199314948     1.761009919949     1.043205278407    12.000000000000
         C            0.952199314948     1.690009919949     2.436205278407    12.000000000000
         C           -0.057800685052     2.427009919949     0.363205278407    12.000000000000
         C           -1.089800685052     3.020009919949     1.077205278407    12.000000000000
         C           -0.086800685052     2.292009919949     3.145205278407    12.000000000000
         C           -1.106800685052     2.960009919949     2.466205278407    12.000000000000
         H            1.762199314948     1.306009919949     0.484205278407     1.007825032230
         H           -0.044800685052     2.476009919949    -0.716794721593     1.007825032230
         H            2.444199314948     0.175009919949     2.518205278407     1.007825032230
         H            1.598199314948     0.466009919949     4.028205278407     1.007825032230
         H           -1.881800685052     3.533009919949     0.550205278407     1.007825032230
         H           -0.105800685052     2.243009919949     4.225205278407     1.007825032230
         H           -1.909800685052     3.428009919949     3.018205278407     1.007825032230
         H            2.865002314948     1.598536919949     3.512713278407     1.007825032230
         C           -2.515800685052    -1.771990080051    -2.828794721593    12.000000000000
         C            0.599199314948    -1.497990080051    -0.707794721593    12.000000000000
         C           -0.676800685052    -1.287990080051    -1.210794721593    12.000000000000
         C            1.443199314948    -2.418990080051    -1.310794721593    12.000000000000
         C           -1.120800685052    -1.986990080051    -2.324794721593    12.000000000000
         C            1.003199314948    -3.122990080051    -2.426794721593    12.000000000000
         C           -0.276800685052    -2.910990080051    -2.925794721593    12.000000000000
         H            0.934199314948    -0.951990080051     0.162205278407     1.007825032230
         H           -1.322800685052    -0.566990080051    -0.729794721593     1.007825032230
         H            2.438199314948    -2.575990080051    -0.923794721593     1.007825032230
         H            1.614199314948    -3.831990080051    -2.935794721593     1.007825032230
         H           -2.639800685052    -2.259990080051    -3.794794721593     1.007825032230
         H           -2.657800685052    -0.704990080051    -2.982794721593     1.007825032230
         H           -0.608800685052    -3.460990080051    -3.792794721593     1.007825032230
         H           -3.280054685052    -2.148360080051    -2.132905721593     1.007825032230

  Running in c1 symmetry.

  Rotational constants: A =      0.03888  B =      0.00952  C =      0.00807 [cm^-1]
  Rotational constants: A =   1165.55343  B =    285.27004  C =    241.99142 [MHz]
  Nuclear repulsion =  761.811565101344286

  Charge       = 0
  Multiplicity = 1
  Electrons    = 100
  Nalpha       = 50
  Nbeta        = 50

  ==> Algorithm <==

  SCF Algorithm Type is PK.
  DIIS enabled.
  MOM disabled.
  Fractional occupation disabled.
  Guess Type is SAD.
  Energy threshold   = 1.00e-06
  Density threshold  = 1.00e-10
  Integral threshold = 0.00e+00

  ==> Primary Basis <==

  Basis Set: CC-PVDZ
    Blend: CC-PVDZ
    Number of shells: 132
    Number of basis function: 276
    Number of Cartesian functions: 290
    Spherical Harmonics?: true
    Max angular momentum: 2

  ==> Pre-Iterations <==

   -------------------------------------------------------
    Irrep   Nso     Nmo     Nalpha   Nbeta   Ndocc  Nsocc
   -------------------------------------------------------
     A        276     276       0       0       0       0
   -------------------------------------------------------
    Total     276     276      50      50      50       0
   -------------------------------------------------------

  ==> Integral Setup <==

  Using integral reordering PK algorithm.
  Sizing the integral batches needed.
  Building batch lookup table.
   Calculation information:
      Number of atoms:                  30
      Number of AO shells:             132
      Number of primitives:            388
      Number of atomic orbitals:       290
      Number of basis functions:       276

      Integral cutoff                 1.00e-12
      Number of threads:                 1

	Batch   1 pq = [       0,    9405] index = [             0,44231715] size =     44231715
	Batch   2 pq = [    9405,   13301] index = [      44231715,88464951] size =     44233236
	Batch   3 pq = [   13301,   16290] index = [      88464951,132690195] size =     44225244
	Batch   4 pq = [   16290,   18810] index = [     132690195,176917455] size =     44227260
	Batch   5 pq = [   18810,   21030] index = [     176917455,221140965] size =     44223510
	Batch   6 pq = [   21030,   23037] index = [     221140965,265363203] size =     44222238
	Batch   7 pq = [   23037,   24883] index = [     265363203,309594286] size =     44231083
	Batch   8 pq = [   24883,   26601] index = [     309594286,353819901] size =     44225615
	Batch   9 pq = [   26601,   28214] index = [     353819901,398029005] size =     44209104
	Batch  10 pq = [   28214,   29740] index = [     398029005,442248670] size =     44219665
	Batch  11 pq = [   29740,   31191] index = [     442248670,486454836] size =     44206166
	Batch  12 pq = [   31191,   32578] index = [     486454836,530679331] size =     44224495
	Batch  13 pq = [   32578,   33908] index = [     530679331,574893186] size =     44213855
	Batch  14 pq = [   33908,   35188] index = [     574893186,619115266] size =     44222080
	Batch  15 pq = [   35188,   36423] index = [     619115266,663335676] size =     44220410
	Batch  16 pq = [   36423,   37617] index = [     663335676,707538153] size =     44202477
	Batch  17 pq = [   37617,   38226] index = [     707538153,730632651] size =     23094498
  Task number: 67
  Buffer size: 11059200
  Buffer per thread: 2
  We computed 33807575 shell quartets total.
  Whereas there are 38531031 unique shell quartets.

  ==> DiskJK: Disk-Based J/K Matrices <==

    J tasked:                  Yes
    K tasked:                  Yes
    wK tasked:                  No
    Memory [MiB]:              375
    Schwarz Cutoff:          1E-12

    OpenMP threads:              1

  Minimum eigenvalue in the overlap matrix is 2.9460322881E-04.
  Using Symmetric Orthogonalization.

  SCF Guess: Superposition of Atomic Densities via on-the-fly atomic UHF.

  ==> Iterations <==

                        Total Energy        Delta E     RMS |[F,P]|

   @RHF iter SAD:  -538.45933286534819   -5.38459e+02   0.00000e+00 
   @RHF iter   1:  -539.22658946554577   -7.67257e-01   2.31324e-03 DIIS
   @RHF iter   2:  -539.47980887638084   -2.53219e-01   9.42257e-04 DIIS
   @RHF iter   3:  -539.51686614129505   -3.70573e-02   2.15623e-04 DIIS
   @RHF iter   4:  -539.52001122811805   -3.14509e-03   5.03434e-05 DIIS
   @RHF iter   5:  -539.52013612181213   -1.24894e-04   1.53007e-05 DIIS
   @RHF iter   6:  -539.52014724969388   -1.11279e-05   4.22364e-06 DIIS
   @RHF iter   7:  -539.52014827684127   -1.02715e-06   1.05030e-06 DIIS
   @RHF iter   8:  -539.52014836373451   -8.68932e-08   2.99341e-07 DIIS
   @RHF iter   9:  -539.52014837743673   -1.37022e-08   1.22811e-07 DIIS
   @RHF iter  10:  -539.52014838015623   -2.71950e-09   6.46511e-08 DIIS
   @RHF iter  11:  -539.52014838107868   -9.22455e-10   2.57032e-08 DIIS
   @RHF iter  12:  -539.52014838121784   -1.39153e-10   1.11056e-08 DIIS
   @RHF iter  13:  -539.52014838123250   -1.46656e-11   3.91650e-09 DIIS
   @RHF iter  14:  -539.52014838123841   -5.91172e-12   9.53658e-10 DIIS
   @RHF iter  15:  -539.52014838123409    4.32010e-12   4.09307e-10 DIIS
   @RHF iter  16:  -539.52014838123534   -1.25056e-12   1.70653e-10 DIIS
   @RHF iter  17:  -539.52014838123273    2.61480e-12   7.63992e-11 DIIS
  Energy and wave function converged.


  ==> Post-Iterations <==

    Orbital Energies [Eh]
    ---------------------

    Doubly Occupied:                                                      

       1A    -11.242147     2A    -11.237374     3A    -11.236229  
       4A    -11.235030     5A    -11.232678     6A    -11.232139  
       7A    -11.231562     8A    -11.230585     9A    -11.230322  
      10A    -11.230170    11A    -11.227830    12A    -11.225748  
      13A    -11.225686    14A    -11.224198    15A     -1.154542  
      16A     -1.152228    17A     -1.046464    18A     -1.043545  
      19A     -1.013556    20A     -1.009916    21A     -0.932764  
      22A     -0.929276    23A     -0.827229    24A     -0.822215  
      25A     -0.797094    26A     -0.794178    27A     -0.693098  
      28A     -0.688783    29A     -0.633840    30A     -0.632789  
      31A     -0.629924    32A     -0.625184    33A     -0.586163  
      34A     -0.580750    35A     -0.576681    36A     -0.576226  
      37A     -0.563208    38A     -0.561152    39A     -0.537139  
      40A     -0.533003    41A     -0.489041    42A     -0.487902  
      43A     -0.485259    44A     -0.483365    45A     -0.480432  
      46A     -0.477907    47A     -0.334807    48A     -0.328532  
      49A     -0.323853    50A     -0.319722  

    Virtual:                                                              

      51A      0.131460    52A      0.137342    53A      0.139172  
      54A      0.146917    55A      0.172716    56A      0.192276  
      57A      0.195384    58A      0.211411    59A      0.213765  
      60A      0.237595    61A      0.245253    62A      0.247076  
      63A      0.257322    64A      0.260339    65A      0.265675  
      66A      0.273234    67A      0.283186    68A      0.288249  
      69A      0.298660    70A      0.332942    71A      0.362348  
      72A      0.373148    73A      0.379540    74A      0.384090  
      75A      0.448811    76A      0.455617    77A      0.462406  
      78A      0.467160    79A      0.474158    80A      0.480036  
      81A      0.492270    82A      0.509528    83A      0.562930  
      84A      0.566348    85A      0.590729    86A      0.601091  
      87A      0.630409    88A      0.650917    89A      0.677321  
      90A      0.682614    91A      0.686104    92A      0.693099  
      93A      0.696549    94A      0.704957    95A      0.714340  
      96A      0.722524    97A      0.723638    98A      0.736323  
      99A      0.738617   100A      0.742510   101A      0.746842  
     102A      0.748942   103A      0.752680   104A      0.764574  
     105A      0.766419   106A      0.772053   107A      0.780769  
     108A      0.787441   109A      0.799924   110A      0.815516  
     111A      0.823866   112A      0.838818   113A      0.848518  
     114A      0.861294   115A      0.863005   116A      0.871417  
     117A      0.877421   118A      0.883804   119A      0.888282  
     120A      0.895091   121A      0.901765   122A      0.906446  
     123A      0.909812   124A      0.927672   125A      0.928963  
     126A      0.931727   127A      0.938808   128A      0.947279  
     129A      0.957364   130A      0.974099   131A      0.992742  
     132A      1.006331   133A      1.009939   134A      1.036850  
     135A      1.057226   136A      1.076712   137A      1.114130  
     138A      1.125279   139A      1.136484   140A      1.138702  
     141A      1.153042   142A      1.159685   143A      1.172921  
     144A      1.178741   145A      1.185093   146A      1.206549  
     147A      1.228168   148A      1.238185   149A      1.244661  
     150A      1.250681   151A      1.250852   152A      1.258438  
     153A      1.268729   154A      1.279534   155A      1.300457  
     156A      1.303478   157A      1.311653   158A      1.313361  
     159A      1.319922   160A      1.322283   161A      1.337345  
     162A      1.359358   163A      1.413286   164A      1.426430  
     165A      1.506363   166A      1.513691   167A      1.528699  
     168A      1.536294   169A      1.556616   170A      1.565460  
     171A      1.603012   172A      1.612966   173A      1.677813  
     174A      1.680112   175A      1.690678   176A      1.701731  
     177A      1.733787   178A      1.742558   179A      1.744907  
     180A      1.754154   181A      1.760992   182A      1.765468  
     183A      1.792349   184A      1.801055   185A      1.807427  
     186A      1.824733   187A      1.857350   188A      1.863692  
     189A      1.877274   190A      1.888522   191A      1.903478  
     192A      1.906125   193A      1.910406   194A      1.913189  
     195A      1.916947   196A      1.919892   197A      1.925731  
     198A      1.927617   199A      1.944840   200A      1.951543  
     201A      1.956054   202A      1.962991   203A      1.972912  
     204A      1.979187   205A      1.987571   206A      1.995171  
     207A      2.001255   208A      2.024599   209A      2.037522  
     210A      2.051682   211A      2.058242   212A      2.066360  
     213A      2.073100   214A      2.086052   215A      2.107299  
     216A      2.120561   217A      2.137422   218A      2.146621  
     219A      2.153897   220A      2.160240   221A      2.160988  
     222A      2.169572   223A      2.174230   224A      2.179862  
     225A      2.199643   226A      2.207559   227A      2.247746  
     228A      2.260482   229A      2.277292   230A      2.280491  
     231A      2.290477   232A      2.297253   233A      2.299795  
     234A      2.314901   235A      2.320815   236A      2.336930  
     237A      2.355123   238A      2.360125   239A      2.465932  
     240A      2.471631   241A      2.474990   242A      2.484478  
     243A      2.495512   244A      2.528956   245A      2.539367  
     246A      2.545566   247A      2.619537   248A      2.645393  
     249A      2.736054   250A      2.748542   251A      2.757056  
     252A      2.761541   253A      2.777774   254A      2.782775  
     255A      2.786761   256A      2.805181   257A      2.810888  
     258A      2.840007   259A      2.849575   260A      2.855679  
     261A      2.869634   262A      2.882538   263A      2.982229  
     264A      2.993036   265A      3.013419   266A      3.020630  
     267A      3.032240   268A      3.038899   269A      3.155713  
     270A      3.170274   271A      3.198636   272A      3.227003  
     273A      3.297857   274A      3.320485   275A      3.969700  
     276A      3.996445  

    Final Occupation by Irrep:
              A 
    DOCC [    50 ]

  @RHF Final Energy:  -539.52014838123273

   => Energetics <=

    Nuclear Repulsion Energy =            761.8115651013442857
    One-Electron Energy =               -2239.8764982993752710
    Two-Electron Energy =                 938.5447848167982556
    Total Energy =                       -539.5201483812327297

Computation Completed


Properties will be evaluated at   0.000000,   0.000000,   0.000000 [a0]

Properties computed using the SCF density matrix

  Nuclear Dipole Moment: [e a0]
     X:    -0.7455      Y:    -1.1959      Z:     0.4591

  Electronic Dipole Moment: [e a0]
     X:     0.6924      Y:     1.2334      Z:    -0.3861

  Dipole Moment: [e a0]
     X:    -0.0531      Y:     0.0375      Z:     0.0729     Total:     0.0977

  Dipole Moment: [D]
     X:    -0.1351      Y:     0.0954      Z:     0.1854     Total:     0.2484


*** tstop() called on ds3 at Tue Apr 28 20:00:02 2020
Module time:
	user time   =     280.06 seconds =       4.67 minutes
	system time =     106.29 seconds =       1.77 minutes
	total time  =        409 seconds =       6.82 minutes
Total time:
	user time   =     280.06 seconds =       4.67 minutes
	system time =     106.29 seconds =       1.77 minutes
	total time  =        409 seconds =       6.82 minutes
                                     G D M A

                                 by Anthony Stone

                           version 2.2.06, 22 June 2011

               Distributed Multipoles from Gaussian wavefunctions


Starting at 20:0:2 on 28 Apr 2020   


Using SCF density matrix from file ./SSI/SSI-022PHE-041PHE-1-dimer.test.12446.fchk


                         Distributed Multipole Analysis

Standard DMA

Positions and radii in angstrom
Multipole moments in atomic units, ea_0^k for rank k

C          x =  2.044199  y =  0.955010  z =  3.163205 angstrom
           Maximum rank =  0   Radius =  0.650 angstrom
                   Q00  =  -0.196579

C          x =  0.956199  y =  1.761010  z =  1.043205 angstrom
           Maximum rank =  0   Radius =  0.650 angstrom
                   Q00  =  -0.015162

C          x =  0.952199  y =  1.690010  z =  2.436205 angstrom
           Maximum rank =  0   Radius =  0.650 angstrom
                   Q00  =  -0.108176

C          x = -0.057801  y =  2.427010  z =  0.363205 angstrom
           Maximum rank =  0   Radius =  0.650 angstrom
                   Q00  =  -0.071776

C          x = -1.089801  y =  3.020010  z =  1.077205 angstrom
           Maximum rank =  0   Radius =  0.650 angstrom
                   Q00  =  -0.061646

C          x = -0.086801  y =  2.292010  z =  3.145205 angstrom
           Maximum rank =  0   Radius =  0.650 angstrom
                   Q00  =  -0.089358

C          x = -1.106801  y =  2.960010  z =  2.466205 angstrom
           Maximum rank =  0   Radius =  0.650 angstrom
                   Q00  =  -0.067018

H          x =  1.762199  y =  1.306010  z =  0.484205 angstrom
           Maximum rank =  0   Radius =  0.325 angstrom
                   Q00  =   0.057959

H          x = -0.044801  y =  2.476010  z = -0.716795 angstrom
           Maximum rank =  0   Radius =  0.325 angstrom
                   Q00  =   0.068681

H          x =  2.444199  y =  0.175010  z =  2.518205 angstrom
           Maximum rank =  0   Radius =  0.325 angstrom
                   Q00  =   0.095581

H          x =  1.598199  y =  0.466010  z =  4.028205 angstrom
           Maximum rank =  0   Radius =  0.325 angstrom
                   Q00  =   0.098183

H          x = -1.881801  y =  3.533010  z =  0.550205 angstrom
           Maximum rank =  0   Radius =  0.325 angstrom
                   Q00  =   0.060346

H          x = -0.105801  y =  2.243010  z =  4.225205 angstrom
           Maximum rank =  0   Radius =  0.325 angstrom
                   Q00  =   0.057863

H          x = -1.909801  y =  3.428010  z =  3.018205 angstrom
           Maximum rank =  0   Radius =  0.325 angstrom
                   Q00  =   0.065870

H          x =  2.865002  y =  1.598537  z =  3.512713 angstrom
           Maximum rank =  0   Radius =  0.325 angstrom
                   Q00  =   0.106073

C          x = -2.515801  y = -1.771990  z = -2.828795 angstrom
           Maximum rank =  0   Radius =  0.650 angstrom
                   Q00  =  -0.205191

C          x =  0.599199  y = -1.497990  z = -0.707795 angstrom
           Maximum rank =  0   Radius =  0.650 angstrom
                   Q00  =  -0.072359

C          x = -0.676801  y = -1.287990  z = -1.210795 angstrom
           Maximum rank =  0   Radius =  0.650 angstrom
                   Q00  =  -0.010868

C          x =  1.443199  y = -2.418990  z = -1.310795 angstrom
           Maximum rank =  0   Radius =  0.650 angstrom
                   Q00  =  -0.089362

C          x = -1.120801  y = -1.986990  z = -2.324795 angstrom
           Maximum rank =  0   Radius =  0.650 angstrom
                   Q00  =  -0.096271

C          x =  1.003199  y = -3.122990  z = -2.426795 angstrom
           Maximum rank =  0   Radius =  0.650 angstrom
                   Q00  =  -0.076707

C          x = -0.276801  y = -2.910990  z = -2.925795 angstrom
           Maximum rank =  0   Radius =  0.650 angstrom
                   Q00  =  -0.043352

H          x =  0.934199  y = -0.951990  z =  0.162205 angstrom
           Maximum rank =  0   Radius =  0.325 angstrom
                   Q00  =   0.063609

H          x = -1.322801  y = -0.566990  z = -0.729795 angstrom
           Maximum rank =  0   Radius =  0.325 angstrom
                   Q00  =   0.056592

H          x =  2.438199  y = -2.575990  z = -0.923795 angstrom
           Maximum rank =  0   Radius =  0.325 angstrom
                   Q00  =   0.056148

H          x =  1.614199  y = -3.831990  z = -2.935795 angstrom
           Maximum rank =  0   Radius =  0.325 angstrom
                   Q00  =   0.062601

H          x = -2.639801  y = -2.259990  z = -3.794795 angstrom
           Maximum rank =  0   Radius =  0.325 angstrom
                   Q00  =   0.095642

H          x = -2.657801  y = -0.704990  z = -2.982795 angstrom
           Maximum rank =  0   Radius =  0.325 angstrom
                   Q00  =   0.098746

H          x = -0.608801  y = -3.460990  z = -3.792795 angstrom
           Maximum rank =  0   Radius =  0.325 angstrom
                   Q00  =   0.056130

H          x = -3.280055  y = -2.148360  z = -2.132906 angstrom
           Maximum rank =  0   Radius =  0.325 angstrom
                   Q00  =   0.103802

Total multipoles referred to origin at
           x =   0.000000,  y =    0.000000,  z =    0.000000 angstrom
                   Q00  =  -0.000000

Finished at 20:0:2 on 28 Apr 2020   

  DMA results are available in the Python driver through the
	  variable('DMA DISTRIBUTED MULTIPOLES')
  and
	  variable('DMA TOTAL MULTIPOLES')
  commands.


    Psi4 stopped on: Tuesday, 28 April 2020 08:00PM
    Psi4 wall time for execution: 0:06:49.16

*** Psi4 exiting successfully. Buy a developer a beer!
