
    -----------------------------------------------------------------------
          Psi4: An Open-Source Ab Initio Electronic Structure Package
                               Psi4 1.3.2 release

                         Git: Rev {HEAD} ecbda83 


    R. M. Parrish, L. A. Burns, D. G. A. Smith, A. C. Simmonett,
    A. E. DePrince III, E. G. Hohenstein, U. Bozkaya, A. Yu. Sokolov,
    R. Di Remigio, R. M. Richard, J. F. Gonthier, A. M. James,
    H. R. McAlexander, A. Kumar, M. Saitow, X. Wang, B. P. Pritchard,
    P. Verma, H. F. Schaefer III, K. Patkowski, R. A. King, E. F. Valeev,
    F. A. Evangelista, J. M. Turney, T. D. Crawford, and C. D. Sherrill,
    J. Chem. Theory Comput. 13(7) pp 3185--3197 (2017).
    (doi: 10.1021/acs.jctc.7b00174)


                         Additional Contributions by
    P. Kraus, H. Kruse, M. H. Lechner, M. C. Schieber, R. A. Shaw,
    A. Alenaizan, R. Galvelis, Z. L. Glick, S. Lehtola, and J. P. Misiewicz

    -----------------------------------------------------------------------


    Psi4 started on: Monday, 27 April 2020 09:00PM

    Process ID: 20027
    Host:       ds3
    PSIDATADIR: /theoryfs2/ds/metcalf/miniconda2/envs/tf2gpu/share/psi4
    Memory:     500.0 MiB
    Threads:    1
    
  ==> Input File <==

--------------------------------------------------------------------------
import numpy as np
set {scf_type pk
basis cc-pvdz
d_convergence 10
gdma_switch   0
gdma_limit    0
gdma_origin   [ 0.0,  0.0,  0.0 ]
}
molecule test {
    units Angstrom
    0 1
    --
    0 1
    C               -0.789041751233742    -1.824520231376206    -0.118546136573692
    C                0.228958248766258    -2.098520231376206    -1.214546136573692
    H               -1.428041751233742    -2.686520231376206     0.053453863426308
    H               -0.261041751233742    -1.606520231376206     0.807453863426308
    H               -1.404041751233742    -0.966520231376206    -0.389546136573692
    H                0.885958248766258    -2.912520231376206    -0.903546136573692
    H                0.835958248766258    -1.200520231376206    -1.316546136573693
    H               -0.250771751233742    -2.360980231376206    -2.168995136573693
    C                0.769958248766258     1.484479768623794     0.333453863426308
    C               -0.213041751233742     2.436479768623794     0.999453863426307
    H                0.588958248766258     0.462479768623794     0.645453863426307
    H                0.658958248766258     1.545479768623794    -0.749546136573693
    H                1.790958248766258     1.755479768623794     0.601453863426308
    H               -1.212041751233742     2.233479768623794     0.611453863426308
    H               -0.216631751233742     2.293689768623794     2.090140863426307
    H                0.049488248766258     3.467749768623794     0.720966863426307

}
e, wfn = energy('scf', return_wfn=True)
gdma(wfn)
dmavals = variable('DMA DISTRIBUTED MULTIPOLES')
charges = np.array(dmavals)
print(charges)
np.save('SSI-009ILE-105LEU-1-dimer.npy', np.array(charges))--------------------------------------------------------------------------

*** tstart() called on ds3
*** at Mon Apr 27 21:00:06 2020

   => Loading Basis Set <=

    Name: CC-PVDZ
    Role: ORBITAL
    Keyword: BASIS
    atoms 1-2, 9-10  entry C          line   138 file /theoryfs2/ds/metcalf/miniconda2/envs/tf2gpu/share/psi4/basis/cc-pvdz.gbs 
    atoms 3-8, 11-16 entry H          line    22 file /theoryfs2/ds/metcalf/miniconda2/envs/tf2gpu/share/psi4/basis/cc-pvdz.gbs 


         ---------------------------------------------------------
                                   SCF
               by Justin Turney, Rob Parrish, Andy Simmonett
                          and Daniel G. A. Smith
                              RHF Reference
                        1 Threads,    500 MiB Core
         ---------------------------------------------------------

  ==> Geometry <==

    Molecular point group: c1
    Full point group: C1

    Geometry (in Angstrom), charge = 0, multiplicity = 1:

       Center              X                  Y                   Z               Mass       
    ------------   -----------------  -----------------  -----------------  -----------------
         C           -0.789041751234    -1.824520231376    -0.118546136574    12.000000000000
         C            0.228958248766    -2.098520231376    -1.214546136574    12.000000000000
         H           -1.428041751234    -2.686520231376     0.053453863426     1.007825032230
         H           -0.261041751234    -1.606520231376     0.807453863426     1.007825032230
         H           -1.404041751234    -0.966520231376    -0.389546136574     1.007825032230
         H            0.885958248766    -2.912520231376    -0.903546136574     1.007825032230
         H            0.835958248766    -1.200520231376    -1.316546136574     1.007825032230
         H           -0.250771751234    -2.360980231376    -2.168995136574     1.007825032230
         C            0.769958248766     1.484479768624     0.333453863426    12.000000000000
         C           -0.213041751234     2.436479768624     0.999453863426    12.000000000000
         H            0.588958248766     0.462479768624     0.645453863426     1.007825032230
         H            0.658958248766     1.545479768624    -0.749546136574     1.007825032230
         H            1.790958248766     1.755479768624     0.601453863426     1.007825032230
         H           -1.212041751234     2.233479768624     0.611453863426     1.007825032230
         H           -0.216631751234     2.293689768624     2.090140863426     1.007825032230
         H            0.049488248766     3.467749768624     0.720966863426     1.007825032230

  Running in c1 symmetry.

  Rotational constants: A =      0.42654  B =      0.05891  C =      0.05431 [cm^-1]
  Rotational constants: A =  12787.43416  B =   1766.10989  C =   1628.18576 [MHz]
  Nuclear repulsion =  125.399391048224928

  Charge       = 0
  Multiplicity = 1
  Electrons    = 36
  Nalpha       = 18
  Nbeta        = 18

  ==> Algorithm <==

  SCF Algorithm Type is PK.
  DIIS enabled.
  MOM disabled.
  Fractional occupation disabled.
  Guess Type is SAD.
  Energy threshold   = 1.00e-06
  Density threshold  = 1.00e-10
  Integral threshold = 0.00e+00

  ==> Primary Basis <==

  Basis Set: CC-PVDZ
    Blend: CC-PVDZ
    Number of shells: 60
    Number of basis function: 116
    Number of Cartesian functions: 120
    Spherical Harmonics?: true
    Max angular momentum: 2

  ==> Pre-Iterations <==

   -------------------------------------------------------
    Irrep   Nso     Nmo     Nalpha   Nbeta   Ndocc  Nsocc
   -------------------------------------------------------
     A        116     116       0       0       0       0
   -------------------------------------------------------
    Total     116     116      18      18      18       0
   -------------------------------------------------------

  ==> Integral Setup <==

  Using integral reordering PK algorithm.
  Sizing the integral batches needed.
  Building batch lookup table.
   Calculation information:
      Number of atoms:                  16
      Number of AO shells:              60
      Number of primitives:            148
      Number of atomic orbitals:       120
      Number of basis functions:       116

      Integral cutoff                 1.00e-12
      Number of threads:                 1

	Batch   1 pq = [       0,    6786] index = [             0,23028291] size =     23028291
  Task number: 3
  Buffer size: 11059200
  Buffer per thread: 2
  We computed 1531275 shell quartets total.
  Whereas there are 1675365 unique shell quartets.

  ==> DiskJK: Disk-Based J/K Matrices <==

    J tasked:                  Yes
    K tasked:                  Yes
    wK tasked:                  No
    Memory [MiB]:              375
    Schwarz Cutoff:          1E-12

    OpenMP threads:              1

  Minimum eigenvalue in the overlap matrix is 7.1264798840E-03.
  Using Symmetric Orthogonalization.

  SCF Guess: Superposition of Atomic Densities via on-the-fly atomic UHF.

  ==> Iterations <==

                        Total Energy        Delta E     RMS |[F,P]|

   @RHF iter SAD:  -157.40294685323295   -1.57403e+02   0.00000e+00 
   @RHF iter   1:  -158.30476676636289   -9.01820e-01   4.23748e-03 DIIS
   @RHF iter   2:  -158.43956587526094   -1.34799e-01   1.80276e-03 DIIS
   @RHF iter   3:  -158.46314627046664   -2.35804e-02   3.51420e-04 DIIS
   @RHF iter   4:  -158.46499214895644   -1.84588e-03   3.87090e-05 DIIS
   @RHF iter   5:  -158.46501590089937   -2.37519e-05   6.26046e-06 DIIS
   @RHF iter   6:  -158.46501650724738   -6.06348e-07   8.30777e-07 DIIS
   @RHF iter   7:  -158.46501651552279   -8.27541e-09   2.63874e-07 DIIS
   @RHF iter   8:  -158.46501651612073   -5.97936e-10   4.61494e-08 DIIS
   @RHF iter   9:  -158.46501651615708   -3.63514e-11   9.03914e-09 DIIS
   @RHF iter  10:  -158.46501651615935   -2.27374e-12   2.35199e-09 DIIS
   @RHF iter  11:  -158.46501651615955   -1.98952e-13   4.29928e-10 DIIS
   @RHF iter  12:  -158.46501651615932    2.27374e-13   1.12279e-10 DIIS
   @RHF iter  13:  -158.46501651615995   -6.25278e-13   2.99301e-11 DIIS
  Energy and wave function converged.


  ==> Post-Iterations <==

    Orbital Energies [Eh]
    ---------------------

    Doubly Occupied:                                                      

       1A    -11.218956     2A    -11.217214     3A    -11.215901  
       4A    -11.214756     5A     -1.023138     6A     -1.018790  
       7A     -0.837441     8A     -0.835571     9A     -0.609576  
      10A     -0.601915    11A     -0.597930    12A     -0.591122  
      13A     -0.502848    14A     -0.499562    15A     -0.491802  
      16A     -0.485584    17A     -0.483097    18A     -0.480709  

    Virtual:                                                              

      19A      0.171038    20A      0.201195    21A      0.226588  
      22A      0.228975    23A      0.246354    24A      0.255367  
      25A      0.264107    26A      0.276960    27A      0.279956  
      28A      0.307100    29A      0.312282    30A      0.361444  
      31A      0.389507    32A      0.413288    33A      0.584874  
      34A      0.589796    35A      0.602532    36A      0.604603  
      37A      0.612088    38A      0.629716    39A      0.680536  
      40A      0.686995    41A      0.693887    42A      0.810628  
      43A      0.842613    44A      0.861737    45A      0.877767  
      46A      0.887269    47A      0.890668    48A      0.896938  
      49A      0.902771    50A      0.907205    51A      0.921018  
      52A      0.941679    53A      0.943405    54A      0.968814  
      55A      0.988491    56A      1.020559    57A      1.123006  
      58A      1.129115    59A      1.135882    60A      1.153656  
      61A      1.242531    62A      1.275913    63A      1.468500  
      64A      1.475622    65A      1.483429    66A      1.488988  
      67A      1.556335    68A      1.588648    69A      1.678182  
      70A      1.686751    71A      1.698495    72A      1.721006  
      73A      1.845614    74A      1.860668    75A      1.869777  
      76A      1.889572    77A      1.895978    78A      1.914894  
      79A      1.942788    80A      1.945936    81A      1.947208  
      82A      1.950096    83A      1.954408    84A      1.961892  
      85A      1.970724    86A      1.975499    87A      1.995458  
      88A      2.029423    89A      2.097730    90A      2.106232  
      91A      2.116707    92A      2.152419    93A      2.288978  
      94A      2.304254    95A      2.314182    96A      2.327106  
      97A      2.451479    98A      2.464110    99A      2.465797  
     100A      2.475700   101A      2.567355   102A      2.569660  
     103A      2.581175   104A      2.595436   105A      2.761301  
     106A      2.774888   107A      2.794768   108A      2.802003  
     109A      2.847019   110A      2.852418   111A      2.861343  
     112A      2.867757   113A      2.935333   114A      2.959568  
     115A      2.982317   116A      3.004788  

    Final Occupation by Irrep:
              A 
    DOCC [    18 ]

  @RHF Final Energy:  -158.46501651615995

   => Energetics <=

    Nuclear Repulsion Energy =            125.3993910482249277
    One-Electron Energy =                -459.8769894448242894
    Two-Electron Energy =                 176.0125818804394271
    Total Energy =                       -158.4650165161599489

Computation Completed


Properties will be evaluated at   0.000000,   0.000000,   0.000000 [a0]

Properties computed using the SCF density matrix

  Nuclear Dipole Moment: [e a0]
     X:     0.0354      Y:     0.0232      Z:     0.0021

  Electronic Dipole Moment: [e a0]
     X:    -0.0349      Y:    -0.0375      Z:     0.0012

  Dipole Moment: [e a0]
     X:     0.0004      Y:    -0.0143      Z:     0.0033     Total:     0.0147

  Dipole Moment: [D]
     X:     0.0011      Y:    -0.0363      Z:     0.0083     Total:     0.0372


*** tstop() called on ds3 at Mon Apr 27 21:00:18 2020
Module time:
	user time   =       8.29 seconds =       0.14 minutes
	system time =       2.98 seconds =       0.05 minutes
	total time  =         12 seconds =       0.20 minutes
Total time:
	user time   =       8.29 seconds =       0.14 minutes
	system time =       2.98 seconds =       0.05 minutes
	total time  =         12 seconds =       0.20 minutes
                                     G D M A

                                 by Anthony Stone

                           version 2.2.06, 22 June 2011

               Distributed Multipoles from Gaussian wavefunctions


Starting at 21:0:18 on 27 Apr 2020  


Using SCF density matrix from file ./SSI/SSI-009ILE-105LEU-1-dimer.test.20027.fchk


                         Distributed Multipole Analysis

Standard DMA

Positions and radii in angstrom
Multipole moments in atomic units, ea_0^k for rank k

C          x = -0.789042  y = -1.824520  z = -0.118546 angstrom
           Maximum rank =  0   Radius =  0.650 angstrom
                   Q00  =  -0.243835

C          x =  0.228958  y = -2.098520  z = -1.214546 angstrom
           Maximum rank =  0   Radius =  0.650 angstrom
                   Q00  =  -0.226414

H          x = -1.428042  y = -2.686520  z =  0.053454 angstrom
           Maximum rank =  0   Radius =  0.325 angstrom
                   Q00  =   0.079535

H          x = -0.261042  y = -1.606520  z =  0.807454 angstrom
           Maximum rank =  0   Radius =  0.325 angstrom
                   Q00  =   0.076366

H          x = -1.404042  y = -0.966520  z = -0.389546 angstrom
           Maximum rank =  0   Radius =  0.325 angstrom
                   Q00  =   0.077583

H          x =  0.885958  y = -2.912520  z = -0.903546 angstrom
           Maximum rank =  0   Radius =  0.325 angstrom
                   Q00  =   0.077140

H          x =  0.835958  y = -1.200520  z = -1.316546 angstrom
           Maximum rank =  0   Radius =  0.325 angstrom
                   Q00  =   0.079871

H          x = -0.250772  y = -2.360980  z = -2.168995 angstrom
           Maximum rank =  0   Radius =  0.325 angstrom
                   Q00  =   0.080394

C          x =  0.769958  y =  1.484480  z =  0.333454 angstrom
           Maximum rank =  0   Radius =  0.650 angstrom
                   Q00  =  -0.238658

C          x = -0.213042  y =  2.436480  z =  0.999454 angstrom
           Maximum rank =  0   Radius =  0.650 angstrom
                   Q00  =  -0.233752

H          x =  0.588958  y =  0.462480  z =  0.645454 angstrom
           Maximum rank =  0   Radius =  0.325 angstrom
                   Q00  =   0.083867

H          x =  0.658958  y =  1.545480  z = -0.749546 angstrom
           Maximum rank =  0   Radius =  0.325 angstrom
                   Q00  =   0.075902

H          x =  1.790958  y =  1.755480  z =  0.601454 angstrom
           Maximum rank =  0   Radius =  0.325 angstrom
                   Q00  =   0.077275

H          x = -1.212042  y =  2.233480  z =  0.611454 angstrom
           Maximum rank =  0   Radius =  0.325 angstrom
                   Q00  =   0.076312

H          x = -0.216632  y =  2.293690  z =  2.090141 angstrom
           Maximum rank =  0   Radius =  0.325 angstrom
                   Q00  =   0.080133

H          x =  0.049488  y =  3.467750  z =  0.720967 angstrom
           Maximum rank =  0   Radius =  0.325 angstrom
                   Q00  =   0.078281

Total multipoles referred to origin at
           x =   0.000000,  y =    0.000000,  z =    0.000000 angstrom
                   Q00  =  -0.000000

Finished at 21:0:18 on 27 Apr 2020  

  DMA results are available in the Python driver through the
	  variable('DMA DISTRIBUTED MULTIPOLES')
  and
	  variable('DMA TOTAL MULTIPOLES')
  commands.


    Psi4 stopped on: Monday, 27 April 2020 09:00PM
    Psi4 wall time for execution: 0:00:12.41

*** Psi4 exiting successfully. Buy a developer a beer!
