
    -----------------------------------------------------------------------
          Psi4: An Open-Source Ab Initio Electronic Structure Package
                               Psi4 1.3.2 release

                         Git: Rev {HEAD} ecbda83 


    R. M. Parrish, L. A. Burns, D. G. A. Smith, A. C. Simmonett,
    A. E. DePrince III, E. G. Hohenstein, U. Bozkaya, A. Yu. Sokolov,
    R. Di Remigio, R. M. Richard, J. F. Gonthier, A. M. James,
    H. R. McAlexander, A. Kumar, M. Saitow, X. Wang, B. P. Pritchard,
    P. Verma, H. F. Schaefer III, K. Patkowski, R. A. King, E. F. Valeev,
    F. A. Evangelista, J. M. Turney, T. D. Crawford, and C. D. Sherrill,
    J. Chem. Theory Comput. 13(7) pp 3185--3197 (2017).
    (doi: 10.1021/acs.jctc.7b00174)


                         Additional Contributions by
    P. Kraus, H. Kruse, M. H. Lechner, M. C. Schieber, R. A. Shaw,
    A. Alenaizan, R. Galvelis, Z. L. Glick, S. Lehtola, and J. P. Misiewicz

    -----------------------------------------------------------------------


    Psi4 started on: Tuesday, 28 April 2020 07:47AM

    Process ID: 6807
    Host:       ds3
    PSIDATADIR: /theoryfs2/ds/metcalf/miniconda2/envs/tf2gpu/share/psi4
    Memory:     500.0 MiB
    Threads:    1
    
  ==> Input File <==

--------------------------------------------------------------------------
import numpy as np
set {scf_type pk
basis cc-pvdz
d_convergence 10
gdma_switch   0
gdma_limit    0
gdma_origin   [ 0.0,  0.0,  0.0 ]
}
molecule test {
    units Angstrom
    0 1
    --
    0 1
    C               -0.391875941517606    -3.193029867862064    -0.307949474673576
    C                0.207124058482394     0.532970132137936     1.722050525326424
    C                1.302124058482394    -0.127029867862064     1.200050525326424
    C               -1.035875941517606    -0.027029867862064     1.595050525326424
    C                1.118124058482394    -1.357029867862064     0.513050525326424
    C               -1.216875941517606    -1.225029867862064     0.919050525326424
    C               -0.155875941517606    -1.900029867862064     0.379050525326424
    H                0.332124058482394     1.470970132137936     2.247050525326424
    H                2.292124058482394     0.294970132137936     1.306050525326424
    H               -1.892875941517606     0.476970132137936     2.019050525326424
    H                1.974124058482394    -1.869029867862064     0.095050525326424
    H               -2.212875941517606    -1.634029867862064     0.834050525326424
    H                0.085124058482394    -3.149029867862064    -1.288949474673576
    H               -1.458875941517606    -3.352029867862063    -0.464949474673576
    H                0.031674058482394    -4.035000867862063     0.259230525326424
    C                0.212124058482394     2.533970132137936    -1.236949474673576
    C               -1.196875941517606     2.158970132137936    -1.706949474673576
    C                1.202124058482394     2.093970132137936    -2.279949474673576
    H                0.276124058482394     3.614970132137936    -1.122949474673576
    H                0.520124058482395     2.108970132137936    -0.286949474673576
    H               -1.330875941517606     1.657970132137936    -2.658949474673576
    H               -1.755875941517606     3.077970132137936    -1.800949474673576
    H                2.111124058482394     2.696970132137936    -2.184949474673576
    H                1.468124058482394     1.044970132137936    -2.105949474673576
    H               -1.722435941517606     1.449616132137936    -1.050739474673576
    H                0.756384058482394     2.208905132137936    -3.278999474673576

}
e, wfn = energy('scf', return_wfn=True)
gdma(wfn)
dmavals = variable('DMA DISTRIBUTED MULTIPOLES')
charges = np.array(dmavals)
print(charges)
np.save('SSI-146PHE-199LYS-2-dimer.npy', np.array(charges))--------------------------------------------------------------------------

*** tstart() called on ds3
*** at Tue Apr 28 07:47:10 2020

   => Loading Basis Set <=

    Name: CC-PVDZ
    Role: ORBITAL
    Keyword: BASIS
    atoms 1-7, 16-18  entry C          line   138 file /theoryfs2/ds/metcalf/miniconda2/envs/tf2gpu/share/psi4/basis/cc-pvdz.gbs 
    atoms 8-15, 19-26 entry H          line    22 file /theoryfs2/ds/metcalf/miniconda2/envs/tf2gpu/share/psi4/basis/cc-pvdz.gbs 


         ---------------------------------------------------------
                                   SCF
               by Justin Turney, Rob Parrish, Andy Simmonett
                          and Daniel G. A. Smith
                              RHF Reference
                        1 Threads,    500 MiB Core
         ---------------------------------------------------------

  ==> Geometry <==

    Molecular point group: c1
    Full point group: C1

    Geometry (in Angstrom), charge = 0, multiplicity = 1:

       Center              X                  Y                   Z               Mass       
    ------------   -----------------  -----------------  -----------------  -----------------
         C           -0.391875941518    -3.193029867862    -0.307949474674    12.000000000000
         C            0.207124058482     0.532970132138     1.722050525326    12.000000000000
         C            1.302124058482    -0.127029867862     1.200050525326    12.000000000000
         C           -1.035875941518    -0.027029867862     1.595050525326    12.000000000000
         C            1.118124058482    -1.357029867862     0.513050525326    12.000000000000
         C           -1.216875941518    -1.225029867862     0.919050525326    12.000000000000
         C           -0.155875941518    -1.900029867862     0.379050525326    12.000000000000
         H            0.332124058482     1.470970132138     2.247050525326     1.007825032230
         H            2.292124058482     0.294970132138     1.306050525326     1.007825032230
         H           -1.892875941518     0.476970132138     2.019050525326     1.007825032230
         H            1.974124058482    -1.869029867862     0.095050525326     1.007825032230
         H           -2.212875941518    -1.634029867862     0.834050525326     1.007825032230
         H            0.085124058482    -3.149029867862    -1.288949474674     1.007825032230
         H           -1.458875941518    -3.352029867862    -0.464949474674     1.007825032230
         H            0.031674058482    -4.035000867862     0.259230525326     1.007825032230
         C            0.212124058482     2.533970132138    -1.236949474674    12.000000000000
         C           -1.196875941518     2.158970132138    -1.706949474674    12.000000000000
         C            1.202124058482     2.093970132138    -2.279949474674    12.000000000000
         H            0.276124058482     3.614970132138    -1.122949474674     1.007825032230
         H            0.520124058482     2.108970132138    -0.286949474674     1.007825032230
         H           -1.330875941518     1.657970132138    -2.658949474674     1.007825032230
         H           -1.755875941518     3.077970132138    -1.800949474674     1.007825032230
         H            2.111124058482     2.696970132138    -2.184949474674     1.007825032230
         H            1.468124058482     1.044970132138    -2.105949474674     1.007825032230
         H           -1.722435941518     1.449616132138    -1.050739474674     1.007825032230
         H            0.756384058482     2.208905132138    -3.278999474674     1.007825032230

  Running in c1 symmetry.

  Rotational constants: A =      0.05537  B =      0.02341  C =      0.02244 [cm^-1]
  Rotational constants: A =   1659.86426  B =    701.92283  C =    672.63574 [MHz]
  Nuclear repulsion =  503.326738602384467

  Charge       = 0
  Multiplicity = 1
  Electrons    = 76
  Nalpha       = 38
  Nbeta        = 38

  ==> Algorithm <==

  SCF Algorithm Type is PK.
  DIIS enabled.
  MOM disabled.
  Fractional occupation disabled.
  Guess Type is SAD.
  Energy threshold   = 1.00e-06
  Density threshold  = 1.00e-10
  Integral threshold = 0.00e+00

  ==> Primary Basis <==

  Basis Set: CC-PVDZ
    Blend: CC-PVDZ
    Number of shells: 108
    Number of basis function: 220
    Number of Cartesian functions: 230
    Spherical Harmonics?: true
    Max angular momentum: 2

  ==> Pre-Iterations <==

   -------------------------------------------------------
    Irrep   Nso     Nmo     Nalpha   Nbeta   Ndocc  Nsocc
   -------------------------------------------------------
     A        220     220       0       0       0       0
   -------------------------------------------------------
    Total     220     220      38      38      38       0
   -------------------------------------------------------

  ==> Integral Setup <==

  Using integral reordering PK algorithm.
  Sizing the integral batches needed.
  Building batch lookup table.
   Calculation information:
      Number of atoms:                  26
      Number of AO shells:             108
      Number of primitives:            300
      Number of atomic orbitals:       230
      Number of basis functions:       220

      Integral cutoff                 1.00e-12
      Number of threads:                 1

	Batch   1 pq = [       0,    9405] index = [             0,44231715] size =     44231715
	Batch   2 pq = [    9405,   13301] index = [      44231715,88464951] size =     44233236
	Batch   3 pq = [   13301,   16290] index = [      88464951,132690195] size =     44225244
	Batch   4 pq = [   16290,   18810] index = [     132690195,176917455] size =     44227260
	Batch   5 pq = [   18810,   21030] index = [     176917455,221140965] size =     44223510
	Batch   6 pq = [   21030,   23037] index = [     221140965,265363203] size =     44222238
	Batch   7 pq = [   23037,   24310] index = [     265363203,295500205] size =     30137002
  Task number: 27
  Buffer size: 11059200
  Buffer per thread: 2
  We computed 17117110 shell quartets total.
  Whereas there are 17325441 unique shell quartets.

  ==> DiskJK: Disk-Based J/K Matrices <==

    J tasked:                  Yes
    K tasked:                  Yes
    wK tasked:                  No
    Memory [MiB]:              375
    Schwarz Cutoff:          1E-12

    OpenMP threads:              1

  Minimum eigenvalue in the overlap matrix is 2.9636654859E-04.
  Using Symmetric Orthogonalization.

  SCF Guess: Superposition of Atomic Densities via on-the-fly atomic UHF.

  ==> Iterations <==

                        Total Energy        Delta E     RMS |[F,P]|

   @RHF iter SAD:  -387.07199719331311   -3.87072e+02   0.00000e+00 
   @RHF iter   1:  -387.74626294764664   -6.74266e-01   2.80900e-03 DIIS
   @RHF iter   2:  -387.96881900351167   -2.22556e-01   1.22318e-03 DIIS
   @RHF iter   3:  -388.00757423164259   -3.87552e-02   2.57266e-04 DIIS
   @RHF iter   4:  -388.01055804777013   -2.98382e-03   5.86107e-05 DIIS
   @RHF iter   5:  -388.01066759617862   -1.09548e-04   1.85436e-05 DIIS
   @RHF iter   6:  -388.01067841735716   -1.08212e-05   5.38755e-06 DIIS
   @RHF iter   7:  -388.01067949767088   -1.08031e-06   1.24602e-06 DIIS
   @RHF iter   8:  -388.01067958507321   -8.74023e-08   3.97533e-07 DIIS
   @RHF iter   9:  -388.01067960412092   -1.90477e-08   1.94459e-07 DIIS
   @RHF iter  10:  -388.01067960933443   -5.21351e-09   1.01218e-07 DIIS
   @RHF iter  11:  -388.01067961089217   -1.55774e-09   3.09734e-08 DIIS
   @RHF iter  12:  -388.01067961104451   -1.52340e-10   1.22762e-08 DIIS
   @RHF iter  13:  -388.01067961105480   -1.02887e-11   3.63508e-09 DIIS
   @RHF iter  14:  -388.01067961105298    1.81899e-12   9.18506e-10 DIIS
   @RHF iter  15:  -388.01067961105764   -4.66116e-12   2.76103e-10 DIIS
   @RHF iter  16:  -388.01067961105468    2.95586e-12   7.50905e-11 DIIS
  Energy and wave function converged.


  ==> Post-Iterations <==

    Orbital Energies [Eh]
    ---------------------

    Doubly Occupied:                                                      

       1A    -11.239392     2A    -11.237273     3A    -11.234717  
       4A    -11.232178     5A    -11.228879     6A    -11.228787  
       7A    -11.226628     8A    -11.206222     9A    -11.204970  
      10A    -11.202785    11A     -1.159559    12A     -1.054933  
      13A     -1.048608    14A     -1.009746    15A     -0.935600  
      16A     -0.914225    17A     -0.831197    18A     -0.795650  
      19A     -0.792008    20A     -0.694214    21A     -0.636381  
      22A     -0.630922    23A     -0.618180    24A     -0.588197  
      25A     -0.580673    26A     -0.579937    27A     -0.569777  
      28A     -0.541382    29A     -0.536686    30A     -0.521964  
      31A     -0.491525    32A     -0.488535    33A     -0.482349  
      34A     -0.476705    35A     -0.451349    36A     -0.442517  
      37A     -0.330400    38A     -0.326905  

    Virtual:                                                              

      39A      0.130327    40A      0.143670    41A      0.174886  
      42A      0.198258    43A      0.203668    44A      0.209364  
      45A      0.231339    46A      0.240141    47A      0.247745  
      48A      0.253088    49A      0.262466    50A      0.264587  
      51A      0.276476    52A      0.289227    53A      0.294268  
      54A      0.299810    55A      0.310915    56A      0.357430  
      57A      0.366926    58A      0.378675    59A      0.412026  
      60A      0.430107    61A      0.452706    62A      0.464848  
      63A      0.477221    64A      0.504154    65A      0.570319  
      66A      0.577839    67A      0.593452    68A      0.603729  
      69A      0.625347    70A      0.636138    71A      0.664221  
      72A      0.679690    73A      0.689325    74A      0.692431  
      75A      0.702376    76A      0.738659    77A      0.743004  
      78A      0.744502    79A      0.753137    80A      0.760692  
      81A      0.770002    82A      0.781827    83A      0.801009  
      84A      0.817251    85A      0.828379    86A      0.853901  
      87A      0.855081    88A      0.859606    89A      0.865509  
      90A      0.882779    91A      0.887575    92A      0.891609  
      93A      0.896639    94A      0.904590    95A      0.906319  
      96A      0.916481    97A      0.925161    98A      0.933640  
      99A      0.935465   100A      0.943988   101A      0.946084  
     102A      0.954107   103A      0.972653   104A      0.994876  
     105A      1.004156   106A      1.009943   107A      1.022829  
     108A      1.071544   109A      1.086414   110A      1.100843  
     111A      1.127325   112A      1.149307   113A      1.161335  
     114A      1.170663   115A      1.198465   116A      1.234947  
     117A      1.246522   118A      1.255071   119A      1.263441  
     120A      1.293771   121A      1.305197   122A      1.310705  
     123A      1.330811   124A      1.331683   125A      1.411466  
     126A      1.428596   127A      1.491761   128A      1.496410  
     129A      1.505900   130A      1.542368   131A      1.550304  
     132A      1.570473   133A      1.606137   134A      1.617489  
     135A      1.673944   136A      1.684191   137A      1.690738  
     138A      1.722290   139A      1.731196   140A      1.737732  
     141A      1.743568   142A      1.770623   143A      1.799170  
     144A      1.807917   145A      1.823855   146A      1.851166  
     147A      1.868445   148A      1.894370   149A      1.895374  
     150A      1.899044   151A      1.908174   152A      1.922274  
     153A      1.929339   154A      1.935470   155A      1.945848  
     156A      1.953673   157A      1.960277   158A      1.964835  
     159A      1.976767   160A      1.991566   161A      1.993834  
     162A      2.005159   163A      2.010431   164A      2.030546  
     165A      2.037396   166A      2.041434   167A      2.048450  
     168A      2.072623   169A      2.086768   170A      2.108441  
     171A      2.122926   172A      2.137312   173A      2.158745  
     174A      2.175045   175A      2.179782   176A      2.196954  
     177A      2.218635   178A      2.244939   179A      2.251127  
     180A      2.263216   181A      2.271790   182A      2.290808  
     183A      2.305779   184A      2.310298   185A      2.330557  
     186A      2.351342   187A      2.368497   188A      2.399601  
     189A      2.420047   190A      2.456053   191A      2.482832  
     192A      2.527616   193A      2.536659   194A      2.540910  
     195A      2.554784   196A      2.641840   197A      2.676957  
     198A      2.688032   199A      2.731683   200A      2.750358  
     201A      2.770291   202A      2.788252   203A      2.795252  
     204A      2.802973   205A      2.814484   206A      2.825473  
     207A      2.846951   208A      2.855614   209A      2.868500  
     210A      2.883573   211A      2.926312   212A      2.987366  
     213A      3.008773   214A      3.039434   215A      3.049447  
     216A      3.124487   217A      3.182127   218A      3.220340  
     219A      3.310619   220A      3.993250  

    Final Occupation by Irrep:
              A 
    DOCC [    38 ]

  @RHF Final Energy:  -388.01067961105468

   => Energetics <=

    Nuclear Repulsion Energy =            503.3267386023844665
    One-Electron Energy =               -1521.1309322541924303
    Two-Electron Energy =                 629.7935140407532799
    Total Energy =                       -388.0106796110546838

Computation Completed


Properties will be evaluated at   0.000000,   0.000000,   0.000000 [a0]

Properties computed using the SCF density matrix

  Nuclear Dipole Moment: [e a0]
     X:    -0.4938      Y:     5.6849      Z:    -8.8908

  Electronic Dipole Moment: [e a0]
     X:     0.4665      Y:    -5.8846      Z:     8.9567

  Dipole Moment: [e a0]
     X:    -0.0274      Y:    -0.1996      Z:     0.0658     Total:     0.2120

  Dipole Moment: [D]
     X:    -0.0695      Y:    -0.5074      Z:     0.1674     Total:     0.5388


*** tstop() called on ds3 at Tue Apr 28 07:49:41 2020
Module time:
	user time   =     113.21 seconds =       1.89 minutes
	system time =      42.40 seconds =       0.71 minutes
	total time  =        151 seconds =       2.52 minutes
Total time:
	user time   =     113.21 seconds =       1.89 minutes
	system time =      42.40 seconds =       0.71 minutes
	total time  =        151 seconds =       2.52 minutes
                                     G D M A

                                 by Anthony Stone

                           version 2.2.06, 22 June 2011

               Distributed Multipoles from Gaussian wavefunctions


Starting at 7:49:41 on 28 Apr 2020  


Using SCF density matrix from file ./SSI/SSI-146PHE-199LYS-2-dimer.test.6807.fchk


                         Distributed Multipole Analysis

Standard DMA

Positions and radii in angstrom
Multipole moments in atomic units, ea_0^k for rank k

C          x = -0.391876  y = -3.193030  z = -0.307949 angstrom
           Maximum rank =  0   Radius =  0.650 angstrom
                   Q00  =  -0.203839

C          x =  0.207124  y =  0.532970  z =  1.722051 angstrom
           Maximum rank =  0   Radius =  0.650 angstrom
                   Q00  =  -0.088832

C          x =  1.302124  y = -0.127030  z =  1.200051 angstrom
           Maximum rank =  0   Radius =  0.650 angstrom
                   Q00  =  -0.082337

C          x = -1.035876  y = -0.027030  z =  1.595051 angstrom
           Maximum rank =  0   Radius =  0.650 angstrom
                   Q00  =   0.013709

C          x =  1.118124  y = -1.357030  z =  0.513051 angstrom
           Maximum rank =  0   Radius =  0.650 angstrom
                   Q00  =  -0.109738

C          x = -1.216876  y = -1.225030  z =  0.919051 angstrom
           Maximum rank =  0   Radius =  0.650 angstrom
                   Q00  =  -0.045900

C          x = -0.155876  y = -1.900030  z =  0.379051 angstrom
           Maximum rank =  0   Radius =  0.650 angstrom
                   Q00  =  -0.085766

H          x =  0.332124  y =  1.470970  z =  2.247051 angstrom
           Maximum rank =  0   Radius =  0.325 angstrom
                   Q00  =   0.059916

H          x =  2.292124  y =  0.294970  z =  1.306051 angstrom
           Maximum rank =  0   Radius =  0.325 angstrom
                   Q00  =   0.067372

H          x = -1.892876  y =  0.476970  z =  2.019051 angstrom
           Maximum rank =  0   Radius =  0.325 angstrom
                   Q00  =   0.061342

H          x =  1.974124  y = -1.869030  z =  0.095051 angstrom
           Maximum rank =  0   Radius =  0.325 angstrom
                   Q00  =   0.058902

H          x = -2.212876  y = -1.634030  z =  0.834051 angstrom
           Maximum rank =  0   Radius =  0.325 angstrom
                   Q00  =   0.054037

H          x =  0.085124  y = -3.149030  z = -1.288949 angstrom
           Maximum rank =  0   Radius =  0.325 angstrom
                   Q00  =   0.099131

H          x = -1.458876  y = -3.352030  z = -0.464949 angstrom
           Maximum rank =  0   Radius =  0.325 angstrom
                   Q00  =   0.097740

H          x =  0.031674  y = -4.035001  z =  0.259231 angstrom
           Maximum rank =  0   Radius =  0.325 angstrom
                   Q00  =   0.103805

C          x =  0.212124  y =  2.533970  z = -1.236949 angstrom
           Maximum rank =  0   Radius =  0.650 angstrom
                   Q00  =  -0.079178

C          x = -1.196876  y =  2.158970  z = -1.706949 angstrom
           Maximum rank =  0   Radius =  0.650 angstrom
                   Q00  =  -0.277354

C          x =  1.202124  y =  2.093970  z = -2.279949 angstrom
           Maximum rank =  0   Radius =  0.650 angstrom
                   Q00  =  -0.225855

H          x =  0.276124  y =  3.614970  z = -1.122949 angstrom
           Maximum rank =  0   Radius =  0.325 angstrom
                   Q00  =   0.044167

H          x =  0.520124  y =  2.108970  z = -0.286949 angstrom
           Maximum rank =  0   Radius =  0.325 angstrom
                   Q00  =   0.081756

H          x = -1.330876  y =  1.657970  z = -2.658949 angstrom
           Maximum rank =  0   Radius =  0.325 angstrom
                   Q00  =   0.071188

H          x = -1.755876  y =  3.077970  z = -1.800949 angstrom
           Maximum rank =  0   Radius =  0.325 angstrom
                   Q00  =   0.080331

H          x =  2.111124  y =  2.696970  z = -2.184949 angstrom
           Maximum rank =  0   Radius =  0.325 angstrom
                   Q00  =   0.072726

H          x =  1.468124  y =  1.044970  z = -2.105949 angstrom
           Maximum rank =  0   Radius =  0.325 angstrom
                   Q00  =   0.080982

H          x = -1.722436  y =  1.449616  z = -1.050739 angstrom
           Maximum rank =  0   Radius =  0.325 angstrom
                   Q00  =   0.084333

H          x =  0.756384  y =  2.208905  z = -3.278999 angstrom
           Maximum rank =  0   Radius =  0.325 angstrom
                   Q00  =   0.067361

Total multipoles referred to origin at
           x =   0.000000,  y =    0.000000,  z =    0.000000 angstrom
                   Q00  =  -0.000000

Finished at 7:49:41 on 28 Apr 2020  

  DMA results are available in the Python driver through the
	  variable('DMA DISTRIBUTED MULTIPOLES')
  and
	  variable('DMA TOTAL MULTIPOLES')
  commands.


    Psi4 stopped on: Tuesday, 28 April 2020 07:49AM
    Psi4 wall time for execution: 0:02:31.27

*** Psi4 exiting successfully. Buy a developer a beer!
