
    -----------------------------------------------------------------------
          Psi4: An Open-Source Ab Initio Electronic Structure Package
                               Psi4 1.3.2 release

                         Git: Rev {HEAD} ecbda83 


    R. M. Parrish, L. A. Burns, D. G. A. Smith, A. C. Simmonett,
    A. E. DePrince III, E. G. Hohenstein, U. Bozkaya, A. Yu. Sokolov,
    R. Di Remigio, R. M. Richard, J. F. Gonthier, A. M. James,
    H. R. McAlexander, A. Kumar, M. Saitow, X. Wang, B. P. Pritchard,
    P. Verma, H. F. Schaefer III, K. Patkowski, R. A. King, E. F. Valeev,
    F. A. Evangelista, J. M. Turney, T. D. Crawford, and C. D. Sherrill,
    J. Chem. Theory Comput. 13(7) pp 3185--3197 (2017).
    (doi: 10.1021/acs.jctc.7b00174)


                         Additional Contributions by
    P. Kraus, H. Kruse, M. H. Lechner, M. C. Schieber, R. A. Shaw,
    A. Alenaizan, R. Galvelis, Z. L. Glick, S. Lehtola, and J. P. Misiewicz

    -----------------------------------------------------------------------


    Psi4 started on: Tuesday, 28 April 2020 07:55AM

    Process ID: 7715
    Host:       ds3
    PSIDATADIR: /theoryfs2/ds/metcalf/miniconda2/envs/tf2gpu/share/psi4
    Memory:     500.0 MiB
    Threads:    1
    
  ==> Input File <==

--------------------------------------------------------------------------
import numpy as np
set {scf_type pk
basis cc-pvdz
d_convergence 10
gdma_switch   0
gdma_limit    0
gdma_origin   [ 0.0,  0.0,  0.0 ]
}
molecule test {
    units Angstrom
    -1 1
    --
    -1 1
    C                1.588124172748477    -0.907143412851314    -2.847581279087475
    C                0.456124172748477    -1.625143412851314    -2.101581279087475
    O                0.060124172748477    -1.199143412851314    -0.996581279087475
    O               -0.011875827251523    -2.670143412851314    -2.618581279087475
    H                1.333124172748476    -0.808143412851314    -3.902581279087475
    H                2.468124172748476    -1.553143412851314    -2.807581279087475
    H                1.886294172748476     0.065166587148686    -2.428411279087475
    C                0.301124172748477     0.459856587148686     1.767418720912525
    C                1.408124172748476     0.652856587148685     2.781418720912525
    C               -2.176875827251524     1.234856587148686     0.715418720912525
    S               -0.734875827251523     1.910856587148686     1.550418720912525
    H                0.764124172748477     0.228856587148686     0.812418720912525
    H               -0.325875827251523    -0.378143412851314     2.063418720912525
    H                0.986124172748477     1.003856587148686     3.717418720912525
    H                2.085124172748476     1.407856587148686     2.416418720912525
    H               -2.636875827251524     0.471856587148686     1.342418720912525
    H               -2.896875827251524     2.031856587148686     0.528418720912525
    H               -1.876875827251523     0.787856587148686    -0.233581279087475
    H                1.988374172748476    -0.269783412851314     2.929908720912525

}
e, wfn = energy('scf', return_wfn=True)
gdma(wfn)
dmavals = variable('DMA DISTRIBUTED MULTIPOLES')
charges = np.array(dmavals)
print(charges)
np.save('SSI-061GLU-142MET-1-dimer.npy', np.array(charges))--------------------------------------------------------------------------

*** tstart() called on ds3
*** at Tue Apr 28 07:55:03 2020

   => Loading Basis Set <=

    Name: CC-PVDZ
    Role: ORBITAL
    Keyword: BASIS
    atoms 1-2, 8-10  entry C          line   138 file /theoryfs2/ds/metcalf/miniconda2/envs/tf2gpu/share/psi4/basis/cc-pvdz.gbs 
    atoms 3-4        entry O          line   198 file /theoryfs2/ds/metcalf/miniconda2/envs/tf2gpu/share/psi4/basis/cc-pvdz.gbs 
    atoms 5-7, 12-19 entry H          line    22 file /theoryfs2/ds/metcalf/miniconda2/envs/tf2gpu/share/psi4/basis/cc-pvdz.gbs 
    atoms 11         entry S          line   598 file /theoryfs2/ds/metcalf/miniconda2/envs/tf2gpu/share/psi4/basis/cc-pvdz.gbs 


         ---------------------------------------------------------
                                   SCF
               by Justin Turney, Rob Parrish, Andy Simmonett
                          and Daniel G. A. Smith
                              RHF Reference
                        1 Threads,    500 MiB Core
         ---------------------------------------------------------

  ==> Geometry <==

    Molecular point group: c1
    Full point group: C1

    Geometry (in Angstrom), charge = -1, multiplicity = 1:

       Center              X                  Y                   Z               Mass       
    ------------   -----------------  -----------------  -----------------  -----------------
         C            1.588124172748    -0.907143412851    -2.847581279087    12.000000000000
         C            0.456124172748    -1.625143412851    -2.101581279087    12.000000000000
         O            0.060124172748    -1.199143412851    -0.996581279087    15.994914619570
         O           -0.011875827252    -2.670143412851    -2.618581279087    15.994914619570
         H            1.333124172748    -0.808143412851    -3.902581279087     1.007825032230
         H            2.468124172748    -1.553143412851    -2.807581279087     1.007825032230
         H            1.886294172748     0.065166587149    -2.428411279087     1.007825032230
         C            0.301124172748     0.459856587149     1.767418720913    12.000000000000
         C            1.408124172748     0.652856587149     2.781418720913    12.000000000000
         C           -2.176875827252     1.234856587149     0.715418720913    12.000000000000
         S           -0.734875827252     1.910856587149     1.550418720913    31.972071174400
         H            0.764124172748     0.228856587149     0.812418720913     1.007825032230
         H           -0.325875827252    -0.378143412851     2.063418720913     1.007825032230
         H            0.986124172748     1.003856587149     3.717418720913     1.007825032230
         H            2.085124172748     1.407856587149     2.416418720913     1.007825032230
         H           -2.636875827252     0.471856587149     1.342418720913     1.007825032230
         H           -2.896875827252     2.031856587149     0.528418720913     1.007825032230
         H           -1.876875827252     0.787856587149    -0.233581279087     1.007825032230
         H            1.988374172748    -0.269783412851     2.929908720913     1.007825032230

  Running in c1 symmetry.

  Rotational constants: A =      0.07576  B =      0.01885  C =      0.01683 [cm^-1]
  Rotational constants: A =   2271.11769  B =    565.20491  C =    504.62104 [MHz]
  Nuclear repulsion =  420.573147110987463

  Charge       = -1
  Multiplicity = 1
  Electrons    = 74
  Nalpha       = 37
  Nbeta        = 37

  ==> Algorithm <==

  SCF Algorithm Type is PK.
  DIIS enabled.
  MOM disabled.
  Fractional occupation disabled.
  Guess Type is SAD.
  Energy threshold   = 1.00e-06
  Density threshold  = 1.00e-10
  Integral threshold = 0.00e+00

  ==> Primary Basis <==

  Basis Set: CC-PVDZ
    Blend: CC-PVDZ
    Number of shells: 83
    Number of basis function: 171
    Number of Cartesian functions: 179
    Spherical Harmonics?: true
    Max angular momentum: 2

  ==> Pre-Iterations <==

   -------------------------------------------------------
    Irrep   Nso     Nmo     Nalpha   Nbeta   Ndocc  Nsocc
   -------------------------------------------------------
     A        171     171       0       0       0       0
   -------------------------------------------------------
    Total     171     171      37      37      37       0
   -------------------------------------------------------

  ==> Integral Setup <==

  Using integral reordering PK algorithm.
  Sizing the integral batches needed.
  Building batch lookup table.
   Calculation information:
      Number of atoms:                  19
      Number of AO shells:              83
      Number of primitives:            259
      Number of atomic orbitals:       179
      Number of basis functions:       171

      Integral cutoff                 1.00e-12
      Number of threads:                 1

	Batch   1 pq = [       0,    9405] index = [             0,44231715] size =     44231715
	Batch   2 pq = [    9405,   13301] index = [      44231715,88464951] size =     44233236
	Batch   3 pq = [   13301,   14706] index = [      88464951,108140571] size =     19675620
  Task number: 10
  Buffer size: 11059200
  Buffer per thread: 2
  We computed 4545545 shell quartets total.
  Whereas there are 6077841 unique shell quartets.

  ==> DiskJK: Disk-Based J/K Matrices <==

    J tasked:                  Yes
    K tasked:                  Yes
    wK tasked:                  No
    Memory [MiB]:              375
    Schwarz Cutoff:          1E-12

    OpenMP threads:              1

  Minimum eigenvalue in the overlap matrix is 5.2126118079E-03.
  Using Symmetric Orthogonalization.

  SCF Guess: Superposition of Atomic Densities via on-the-fly atomic UHF.

  ==> Iterations <==

                        Total Energy        Delta E     RMS |[F,P]|

   @RHF iter SAD:  -741.40740015304846   -7.41407e+02   0.00000e+00 
   @RHF iter   1:  -742.76279316852674   -1.35539e+00   4.31261e-03 DIIS
   @RHF iter   2:  -742.97793428046270   -2.15141e-01   2.40967e-03 DIIS
   @RHF iter   3:  -743.04036425025424   -6.24300e-02   3.93742e-04 DIIS
   @RHF iter   4:  -743.04353887379591   -3.17462e-03   1.36482e-04 DIIS
   @RHF iter   5:  -743.04393519128325   -3.96317e-04   2.11080e-05 DIIS
   @RHF iter   6:  -743.04394689942944   -1.17081e-05   5.13588e-06 DIIS
   @RHF iter   7:  -743.04394755788542   -6.58456e-07   1.94680e-06 DIIS
   @RHF iter   8:  -743.04394763897335   -8.10879e-08   5.73237e-07 DIIS
   @RHF iter   9:  -743.04394765067286   -1.16995e-08   3.29164e-07 DIIS
   @RHF iter  10:  -743.04394765360723   -2.93437e-09   9.94612e-08 DIIS
   @RHF iter  11:  -743.04394765418658   -5.79348e-10   4.25073e-08 DIIS
   @RHF iter  12:  -743.04394765425366   -6.70752e-11   1.20944e-08 DIIS
   @RHF iter  13:  -743.04394765425798   -4.32010e-12   3.10310e-09 DIIS
   @RHF iter  14:  -743.04394765426139   -3.41061e-12   9.62784e-10 DIIS
   @RHF iter  15:  -743.04394765426116    2.27374e-13   3.09744e-10 DIIS
   @RHF iter  16:  -743.04394765426207   -9.09495e-13   1.29752e-10 DIIS
   @RHF iter  17:  -743.04394765426457   -2.50111e-12   5.33122e-11 DIIS
  Energy and wave function converged.


  ==> Post-Iterations <==

    Orbital Energies [Eh]
    ---------------------

    Doubly Occupied:                                                      

       1A    -91.812866     2A    -20.272471     3A    -20.261090  
       4A    -11.134523     5A    -11.125588     6A    -11.121395  
       7A    -11.119592     8A    -11.058277     9A     -8.817392  
      10A     -6.499652    11A     -6.498062    12A     -6.495904  
      13A     -1.156007    14A     -1.040394    15A     -0.960905  
      16A     -0.885143    17A     -0.801291    18A     -0.763486  
      19A     -0.663559    20A     -0.513745    21A     -0.507304  
      22A     -0.483325    23A     -0.468733    24A     -0.458845  
      25A     -0.417282    26A     -0.413228    27A     -0.409270  
      28A     -0.401556    29A     -0.384668    30A     -0.366905  
      31A     -0.349354    32A     -0.309906    33A     -0.298908  
      34A     -0.210472    35A     -0.191756    36A     -0.176463  
      37A     -0.167469  

    Virtual:                                                              

      38A      0.285284    39A      0.304397    40A      0.342077  
      41A      0.346669    42A      0.350827    43A      0.361004  
      44A      0.368371    45A      0.388157    46A      0.390478  
      47A      0.402146    48A      0.414444    49A      0.421762  
      50A      0.459428    51A      0.480550    52A      0.492977  
      53A      0.571211    54A      0.645748    55A      0.676953  
      56A      0.688625    57A      0.693888    58A      0.718576  
      59A      0.737289    60A      0.757152    61A      0.784233  
      62A      0.790793    63A      0.807023    64A      0.822543  
      65A      0.852213    66A      0.884159    67A      0.894302  
      68A      0.932778    69A      0.941545    70A      0.956768  
      71A      0.964656    72A      0.977084    73A      0.983843  
      74A      0.996753    75A      1.002433    76A      1.012646  
      77A      1.019905    78A      1.026040    79A      1.032811  
      80A      1.037891    81A      1.045428    82A      1.055355  
      83A      1.062724    84A      1.077457    85A      1.082142  
      86A      1.093937    87A      1.123110    88A      1.159546  
      89A      1.218093    90A      1.289482    91A      1.341175  
      92A      1.343027    93A      1.347278    94A      1.406754  
      95A      1.427617    96A      1.439750    97A      1.460111  
      98A      1.481268    99A      1.526034   100A      1.551473  
     101A      1.560378   102A      1.576272   103A      1.592939  
     104A      1.600901   105A      1.658513   106A      1.662844  
     107A      1.705555   108A      1.725831   109A      1.766242  
     110A      1.784392   111A      1.793817   112A      1.800538  
     113A      1.840256   114A      1.849690   115A      1.966994  
     116A      1.998873   117A      2.004665   118A      2.022870  
     119A      2.028503   120A      2.038852   121A      2.049164  
     122A      2.065031   123A      2.073515   124A      2.091670  
     125A      2.098710   126A      2.105348   127A      2.112209  
     128A      2.135837   129A      2.143560   130A      2.172803  
     131A      2.201980   132A      2.228281   133A      2.246624  
     134A      2.262629   135A      2.308763   136A      2.329800  
     137A      2.360029   138A      2.415108   139A      2.422102  
     140A      2.431163   141A      2.458335   142A      2.540467  
     143A      2.574889   144A      2.582023   145A      2.605994  
     146A      2.645661   147A      2.668401   148A      2.699877  
     149A      2.715396   150A      2.779846   151A      2.876643  
     152A      2.879472   153A      2.903337   154A      2.906680  
     155A      2.923290   156A      2.950921   157A      2.962122  
     158A      2.965128   159A      2.985776   160A      3.026376  
     161A      3.102518   162A      3.235801   163A      3.273631  
     164A      3.284963   165A      3.352862   166A      3.629599  
     167A      3.763946   168A      3.818158   169A      4.053424  
     170A      4.105146   171A      4.186157  

    Final Occupation by Irrep:
              A 
    DOCC [    37 ]

  @RHF Final Energy:  -743.04394765426457

   => Energetics <=

    Nuclear Repulsion Energy =            420.5731471109874633
    One-Electron Energy =               -1869.2006254583004647
    Two-Electron Energy =                 705.5835306930483739
    Total Energy =                       -743.0439476542645707

Computation Completed


Properties will be evaluated at   0.000000,   0.000000,   0.000000 [a0]

Properties computed using the SCF density matrix

  Nuclear Dipole Moment: [e a0]
     X:     3.5196      Y:     2.8331      Z:     4.1843

  Electronic Dipole Moment: [e a0]
     X:    -3.3675      Y:    -0.2403      Z:    -1.6724

  Dipole Moment: [e a0]
     X:     0.1521      Y:     2.5927      Z:     2.5119     Total:     3.6132

  Dipole Moment: [D]
     X:     0.3866      Y:     6.5901      Z:     6.3847     Total:     9.1838


*** tstop() called on ds3 at Tue Apr 28 07:55:57 2020
Module time:
	user time   =      37.18 seconds =       0.62 minutes
	system time =      16.14 seconds =       0.27 minutes
	total time  =         54 seconds =       0.90 minutes
Total time:
	user time   =      37.18 seconds =       0.62 minutes
	system time =      16.14 seconds =       0.27 minutes
	total time  =         54 seconds =       0.90 minutes
                                     G D M A

                                 by Anthony Stone

                           version 2.2.06, 22 June 2011

               Distributed Multipoles from Gaussian wavefunctions


Starting at 7:55:57 on 28 Apr 2020  


Using SCF density matrix from file ./SSI/SSI-061GLU-142MET-1-dimer.test.7715.fchk


                         Distributed Multipole Analysis

Standard DMA

Positions and radii in angstrom
Multipole moments in atomic units, ea_0^k for rank k

C          x =  1.588124  y = -0.907143  z = -2.847581 angstrom
           Maximum rank =  0   Radius =  0.650 angstrom
                   Q00  =  -0.291058

C          x =  0.456124  y = -1.625143  z = -2.101581 angstrom
           Maximum rank =  0   Radius =  0.650 angstrom
                   Q00  =   0.957845

O          x =  0.060124  y = -1.199143  z = -0.996581 angstrom
           Maximum rank =  0   Radius =  0.650 angstrom
                   Q00  =  -0.920008

O          x = -0.011876  y = -2.670143  z = -2.618581 angstrom
           Maximum rank =  0   Radius =  0.650 angstrom
                   Q00  =  -0.923221

H          x =  1.333124  y = -0.808143  z = -3.902581 angstrom
           Maximum rank =  0   Radius =  0.325 angstrom
                   Q00  =   0.068173

H          x =  2.468124  y = -1.553143  z = -2.807581 angstrom
           Maximum rank =  0   Radius =  0.325 angstrom
                   Q00  =   0.075917

H          x =  1.886294  y =  0.065167  z = -2.428411 angstrom
           Maximum rank =  0   Radius =  0.325 angstrom
                   Q00  =   0.053809

C          x =  0.301124  y =  0.459857  z =  1.767419 angstrom
           Maximum rank =  0   Radius =  0.650 angstrom
                   Q00  =  -0.153077

C          x =  1.408124  y =  0.652857  z =  2.781419 angstrom
           Maximum rank =  0   Radius =  0.650 angstrom
                   Q00  =  -0.216962

C          x = -2.176876  y =  1.234857  z =  0.715419 angstrom
           Maximum rank =  0   Radius =  0.650 angstrom
                   Q00  =  -0.323068

S          x = -0.734876  y =  1.910857  z =  1.550419 angstrom
           Maximum rank =  0   Radius =  0.650 angstrom
                   Q00  =   0.023722

H          x =  0.764124  y =  0.228857  z =  0.812419 angstrom
           Maximum rank =  0   Radius =  0.325 angstrom
                   Q00  =   0.092004

H          x = -0.325876  y = -0.378143  z =  2.063419 angstrom
           Maximum rank =  0   Radius =  0.325 angstrom
                   Q00  =   0.056358

H          x =  0.986124  y =  1.003857  z =  3.717419 angstrom
           Maximum rank =  0   Radius =  0.325 angstrom
                   Q00  =   0.057071

H          x =  2.085124  y =  1.407857  z =  2.416419 angstrom
           Maximum rank =  0   Radius =  0.325 angstrom
                   Q00  =   0.072773

H          x = -2.636876  y =  0.471857  z =  1.342419 angstrom
           Maximum rank =  0   Radius =  0.325 angstrom
                   Q00  =   0.076228

H          x = -2.896876  y =  2.031857  z =  0.528419 angstrom
           Maximum rank =  0   Radius =  0.325 angstrom
                   Q00  =   0.088163

H          x = -1.876876  y =  0.787857  z = -0.233581 angstrom
           Maximum rank =  0   Radius =  0.325 angstrom
                   Q00  =   0.118344

H          x =  1.988374  y = -0.269783  z =  2.929909 angstrom
           Maximum rank =  0   Radius =  0.325 angstrom
                   Q00  =   0.086987

Total multipoles referred to origin at
           x =   0.000000,  y =    0.000000,  z =    0.000000 angstrom
                   Q00  =  -1.000000

Finished at 7:55:57 on 28 Apr 2020  

  DMA results are available in the Python driver through the
	  variable('DMA DISTRIBUTED MULTIPOLES')
  and
	  variable('DMA TOTAL MULTIPOLES')
  commands.


    Psi4 stopped on: Tuesday, 28 April 2020 07:55AM
    Psi4 wall time for execution: 0:00:54.01

*** Psi4 exiting successfully. Buy a developer a beer!
