
    -----------------------------------------------------------------------
          Psi4: An Open-Source Ab Initio Electronic Structure Package
                               Psi4 1.3.2 release

                         Git: Rev {HEAD} ecbda83 


    R. M. Parrish, L. A. Burns, D. G. A. Smith, A. C. Simmonett,
    A. E. DePrince III, E. G. Hohenstein, U. Bozkaya, A. Yu. Sokolov,
    R. Di Remigio, R. M. Richard, J. F. Gonthier, A. M. James,
    H. R. McAlexander, A. Kumar, M. Saitow, X. Wang, B. P. Pritchard,
    P. Verma, H. F. Schaefer III, K. Patkowski, R. A. King, E. F. Valeev,
    F. A. Evangelista, J. M. Turney, T. D. Crawford, and C. D. Sherrill,
    J. Chem. Theory Comput. 13(7) pp 3185--3197 (2017).
    (doi: 10.1021/acs.jctc.7b00174)


                         Additional Contributions by
    P. Kraus, H. Kruse, M. H. Lechner, M. C. Schieber, R. A. Shaw,
    A. Alenaizan, R. Galvelis, Z. L. Glick, S. Lehtola, and J. P. Misiewicz

    -----------------------------------------------------------------------


    Psi4 started on: Monday, 27 April 2020 08:41AM

    Process ID: 1059
    Host:       ds3
    PSIDATADIR: /theoryfs2/ds/metcalf/miniconda2/envs/tf2gpu/share/psi4
    Memory:     500.0 MiB
    Threads:    1
    
  ==> Input File <==

--------------------------------------------------------------------------
import numpy as np
set {scf_type pk
basis cc-pvdz
d_convergence 10
gdma_switch   0
gdma_limit    0
gdma_origin   [ 0.0,  0.0,  0.0 ]
}
molecule test {
    units Angstrom
    1 1
    --
    1 1
    C               -0.513971457013586    -2.699111513754644     0.013757877578509
    C                0.237028542986414    -0.756111513754644     1.344757877578509
    N                0.447028542986414    -1.664111513754645     0.406757877578509
    N               -0.904971457013586    -0.735111513754645     2.007757877578509
    N                1.161028542986414     0.145888486245355     1.605757877578509
    H                1.390028542986414    -1.708111513754645     0.013757877578509
    H               -1.594971457013586    -1.447111513754644     1.846757877578509
    H               -1.063971457013586    -0.044111513754645     2.724757877578508
    H                2.014028542986414     0.151888486245356     1.039757877578509
    H                1.027028542986414     0.837888486245356     2.323757877578509
    H               -1.539971457013586    -2.412111513754644     0.245757877578509
    H               -0.280971457013586    -3.615111513754644     0.562757877578509
    H               -0.455451457013586    -2.910085513754645    -1.064232122421492
    C               -0.657971457013586     1.733888486245355    -1.468242122421491
    C                0.102028542986414     3.055888486245355    -1.473242122421491
    C                0.109028542986414     0.926888486245355    -2.501242122421492
    H               -1.688971457013586     1.889888486245356    -1.787242122421491
    H               -0.634971457013586     1.264888486245356    -0.485242122421491
    H               -0.556971457013586     3.870888486245355    -1.172242122421491
    H                0.967028542986414     2.987888486245355    -0.810242122421491
    H               -0.444971457013586     0.046888486245355    -2.827242122421491
    H                1.036028542986414     0.645888486245355    -2.020242122421491
    H                0.434098542986414     3.153865486245355    -2.517332122421491
    H                0.242908542986414     1.668681486245355    -3.302382122421491

}
e, wfn = energy('scf', return_wfn=True)
gdma(wfn)
dmavals = variable('DMA DISTRIBUTED MULTIPOLES')
charges = np.array(dmavals)
print(charges)
np.save('SSI-033ARG-189PRO-1-dimer.npy', np.array(charges))--------------------------------------------------------------------------

*** tstart() called on ds3
*** at Mon Apr 27 08:41:39 2020

   => Loading Basis Set <=

    Name: CC-PVDZ
    Role: ORBITAL
    Keyword: BASIS
    atoms 1-2, 14-16  entry C          line   138 file /theoryfs2/ds/metcalf/miniconda2/envs/tf2gpu/share/psi4/basis/cc-pvdz.gbs 
    atoms 3-5         entry N          line   168 file /theoryfs2/ds/metcalf/miniconda2/envs/tf2gpu/share/psi4/basis/cc-pvdz.gbs 
    atoms 6-13, 17-24 entry H          line    22 file /theoryfs2/ds/metcalf/miniconda2/envs/tf2gpu/share/psi4/basis/cc-pvdz.gbs 


         ---------------------------------------------------------
                                   SCF
               by Justin Turney, Rob Parrish, Andy Simmonett
                          and Daniel G. A. Smith
                              RHF Reference
                        1 Threads,    500 MiB Core
         ---------------------------------------------------------

  ==> Geometry <==

    Molecular point group: c1
    Full point group: C1

    Geometry (in Angstrom), charge = 1, multiplicity = 1:

       Center              X                  Y                   Z               Mass       
    ------------   -----------------  -----------------  -----------------  -----------------
         C           -0.513971457014    -2.699111513755     0.013757877579    12.000000000000
         C            0.237028542986    -0.756111513755     1.344757877579    12.000000000000
         N            0.447028542986    -1.664111513755     0.406757877579    14.003074004430
         N           -0.904971457014    -0.735111513755     2.007757877579    14.003074004430
         N            1.161028542986     0.145888486245     1.605757877579    14.003074004430
         H            1.390028542986    -1.708111513755     0.013757877579     1.007825032230
         H           -1.594971457014    -1.447111513755     1.846757877579     1.007825032230
         H           -1.063971457014    -0.044111513755     2.724757877579     1.007825032230
         H            2.014028542986     0.151888486245     1.039757877579     1.007825032230
         H            1.027028542986     0.837888486245     2.323757877579     1.007825032230
         H           -1.539971457014    -2.412111513755     0.245757877579     1.007825032230
         H           -0.280971457014    -3.615111513755     0.562757877579     1.007825032230
         H           -0.455451457014    -2.910085513755    -1.064232122421     1.007825032230
         C           -0.657971457014     1.733888486245    -1.468242122421    12.000000000000
         C            0.102028542986     3.055888486245    -1.473242122421    12.000000000000
         C            0.109028542986     0.926888486245    -2.501242122421    12.000000000000
         H           -1.688971457014     1.889888486245    -1.787242122421     1.007825032230
         H           -0.634971457014     1.264888486245    -0.485242122421     1.007825032230
         H           -0.556971457014     3.870888486245    -1.172242122421     1.007825032230
         H            0.967028542986     2.987888486245    -0.810242122421     1.007825032230
         H           -0.444971457014     0.046888486245    -2.827242122421     1.007825032230
         H            1.036028542986     0.645888486245    -2.020242122421     1.007825032230
         H            0.434098542986     3.153865486245    -2.517332122421     1.007825032230
         H            0.242908542986     1.668681486245    -3.302382122421     1.007825032230

  Running in c1 symmetry.

  Rotational constants: A =      0.07803  B =      0.02920  C =      0.02492 [cm^-1]
  Rotational constants: A =   2339.23225  B =    875.34271  C =    747.21000 [MHz]
  Nuclear repulsion =  402.730686270281524

  Charge       = 1
  Multiplicity = 1
  Electrons    = 66
  Nalpha       = 33
  Nbeta        = 33

  ==> Algorithm <==

  SCF Algorithm Type is PK.
  DIIS enabled.
  MOM disabled.
  Fractional occupation disabled.
  Guess Type is SAD.
  Energy threshold   = 1.00e-06
  Density threshold  = 1.00e-10
  Integral threshold = 0.00e+00

  ==> Primary Basis <==

  Basis Set: CC-PVDZ
    Blend: CC-PVDZ
    Number of shells: 96
    Number of basis function: 192
    Number of Cartesian functions: 200
    Spherical Harmonics?: true
    Max angular momentum: 2

  ==> Pre-Iterations <==

   -------------------------------------------------------
    Irrep   Nso     Nmo     Nalpha   Nbeta   Ndocc  Nsocc
   -------------------------------------------------------
     A        192     192       0       0       0       0
   -------------------------------------------------------
    Total     192     192      33      33      33       0
   -------------------------------------------------------

  ==> Integral Setup <==

  Using integral reordering PK algorithm.
  Sizing the integral batches needed.
  Building batch lookup table.
   Calculation information:
      Number of atoms:                  24
      Number of AO shells:              96
      Number of primitives:            256
      Number of atomic orbitals:       200
      Number of basis functions:       192

      Integral cutoff                 1.00e-12
      Number of threads:                 1

	Batch   1 pq = [       0,    9405] index = [             0,44231715] size =     44231715
	Batch   2 pq = [    9405,   13301] index = [      44231715,88464951] size =     44233236
	Batch   3 pq = [   13301,   16290] index = [      88464951,132690195] size =     44225244
	Batch   4 pq = [   16290,   18528] index = [     132690195,171652656] size =     38962461
  Task number: 16
  Buffer size: 11059200
  Buffer per thread: 2
  We computed 9964476 shell quartets total.
  Whereas there are 10841496 unique shell quartets.

  ==> DiskJK: Disk-Based J/K Matrices <==

    J tasked:                  Yes
    K tasked:                  Yes
    wK tasked:                  No
    Memory [MiB]:              375
    Schwarz Cutoff:          1E-12

    OpenMP threads:              1

  Minimum eigenvalue in the overlap matrix is 3.2738892156E-03.
  Using Symmetric Orthogonalization.

  SCF Guess: Superposition of Atomic Densities via on-the-fly atomic UHF.

  ==> Iterations <==

                        Total Energy        Delta E     RMS |[F,P]|

   @RHF iter SAD:  -361.28439453816924   -3.61284e+02   0.00000e+00 
   @RHF iter   1:  -361.59595960843410   -3.11565e-01   3.22277e-03 DIIS
   @RHF iter   2:  -361.79678597951676   -2.00826e-01   1.31073e-03 DIIS
   @RHF iter   3:  -361.82845074407800   -3.16648e-02   3.04146e-04 DIIS
   @RHF iter   4:  -361.83131950691990   -2.86876e-03   4.75835e-05 DIIS
   @RHF iter   5:  -361.83139312869565   -7.36218e-05   1.73473e-05 DIIS
   @RHF iter   6:  -361.83140222140821   -9.09271e-06   3.77787e-06 DIIS
   @RHF iter   7:  -361.83140286511281   -6.43705e-07   1.27600e-06 DIIS
   @RHF iter   8:  -361.83140291600608   -5.08933e-08   3.55759e-07 DIIS
   @RHF iter   9:  -361.83140292008130   -4.07522e-09   9.18178e-08 DIIS
   @RHF iter  10:  -361.83140292037467   -2.93369e-10   2.37730e-08 DIIS
   @RHF iter  11:  -361.83140292039371   -1.90425e-11   7.20614e-09 DIIS
   @RHF iter  12:  -361.83140292039485   -1.13687e-12   2.05854e-09 DIIS
   @RHF iter  13:  -361.83140292039599   -1.13687e-12   7.55770e-10 DIIS
   @RHF iter  14:  -361.83140292039445    1.53477e-12   2.68154e-10 DIIS
   @RHF iter  15:  -361.83140292039423    2.27374e-13   6.55316e-11 DIIS
  Energy and wave function converged.


  ==> Post-Iterations <==

    Orbital Energies [Eh]
    ---------------------

    Doubly Occupied:                                                      

       1A    -15.789980     2A    -15.788937     3A    -15.788432  
       4A    -11.590255     5A    -11.443891     6A    -11.323731  
       7A    -11.321035     8A    -11.313361     9A     -1.547484  
      10A     -1.402625    11A     -1.392785    12A     -1.175047  
      13A     -1.143547    14A     -1.037859    15A     -1.016653  
      16A     -0.978284    17A     -0.944303    18A     -0.904994  
      19A     -0.858884    20A     -0.857160    21A     -0.826419  
      22A     -0.796941    23A     -0.750926    24A     -0.742567  
      25A     -0.726747    26A     -0.716926    27A     -0.645991  
      28A     -0.618824    29A     -0.615300    30A     -0.590248  
      31A     -0.584897    32A     -0.578664    33A     -0.560633  

    Virtual:                                                              

      34A     -0.017697    35A      0.018850    36A      0.025433  
      37A      0.029201    38A      0.057012    39A      0.076436  
      40A      0.096105    41A      0.111068    42A      0.115244  
      43A      0.132442    44A      0.134743    45A      0.143090  
      46A      0.144855    47A      0.166533    48A      0.181888  
      49A      0.200793    50A      0.208419    51A      0.236427  
      52A      0.265956    53A      0.295494    54A      0.312944  
      55A      0.334263    56A      0.345552    57A      0.437493  
      58A      0.445379    59A      0.471926    60A      0.477850  
      61A      0.503692    62A      0.513914    63A      0.523885  
      64A      0.529557    65A      0.551939    66A      0.552621  
      67A      0.567334    68A      0.576800    69A      0.632815  
      70A      0.676280    71A      0.683578    72A      0.696083  
      73A      0.698574    74A      0.712815    75A      0.731076  
      76A      0.734825    77A      0.745528    78A      0.756726  
      79A      0.766252    80A      0.771804    81A      0.776647  
      82A      0.783064    83A      0.793571    84A      0.805335  
      85A      0.812763    86A      0.818544    87A      0.845149  
      88A      0.851674    89A      0.860623    90A      0.888176  
      91A      0.894185    92A      0.904229    93A      0.932941  
      94A      0.958032    95A      0.993679    96A      1.016034  
      97A      1.028321    98A      1.052674    99A      1.118613  
     100A      1.137488   101A      1.145188   102A      1.159135  
     103A      1.183684   104A      1.214566   105A      1.225586  
     106A      1.275957   107A      1.287842   108A      1.345876  
     109A      1.374566   110A      1.388059   111A      1.473035  
     112A      1.483143   113A      1.515591   114A      1.521544  
     115A      1.527001   116A      1.539950   117A      1.549979  
     118A      1.580087   119A      1.615214   120A      1.627657  
     121A      1.645249   122A      1.654396   123A      1.685442  
     124A      1.696180   125A      1.714196   126A      1.720015  
     127A      1.735448   128A      1.751170   129A      1.761462  
     130A      1.770557   131A      1.782809   132A      1.797069  
     133A      1.803150   134A      1.808185   135A      1.830975  
     136A      1.832745   137A      1.855798   138A      1.872456  
     139A      1.888108   140A      1.892880   141A      1.923303  
     142A      1.931207   143A      1.942437   144A      1.988074  
     145A      2.010460   146A      2.022718   147A      2.027819  
     148A      2.049663   149A      2.082795   150A      2.122765  
     151A      2.123117   152A      2.132528   153A      2.156485  
     154A      2.196727   155A      2.226813   156A      2.233276  
     157A      2.269060   158A      2.290375   159A      2.308937  
     160A      2.329571   161A      2.349486   162A      2.364623  
     163A      2.387577   164A      2.404872   165A      2.429660  
     166A      2.439426   167A      2.461598   168A      2.524512  
     169A      2.541536   170A      2.572775   171A      2.588252  
     172A      2.602778   173A      2.625666   174A      2.654778  
     175A      2.685053   176A      2.709934   177A      2.732045  
     178A      2.742968   179A      2.750817   180A      2.778225  
     181A      2.790499   182A      2.812114   183A      2.820877  
     184A      2.838941   185A      2.851487   186A      2.891793  
     187A      2.954727   188A      3.056573   189A      3.101452  
     190A      3.125212   191A      3.559073   192A      3.647310  

    Final Occupation by Irrep:
              A 
    DOCC [    33 ]

  @RHF Final Energy:  -361.83140292039423

   => Energetics <=

    Nuclear Repulsion Energy =            402.7306862702815238
    One-Electron Energy =               -1276.3755195714209094
    Two-Electron Energy =                 511.8134303807452170
    Total Energy =                       -361.8314029203942255

Computation Completed


Properties will be evaluated at   0.000000,   0.000000,   0.000000 [a0]

Properties computed using the SCF density matrix

  Nuclear Dipole Moment: [e a0]
     X:    -1.0802      Y:     4.1145      Z:    -6.7887

  Electronic Dipole Moment: [e a0]
     X:     1.3485      Y:    -5.6924      Z:     8.9888

  Dipole Moment: [e a0]
     X:     0.2683      Y:    -1.5778      Z:     2.2001     Total:     2.7206

  Dipole Moment: [D]
     X:     0.6819      Y:    -4.0105      Z:     5.5920     Total:     6.9152


*** tstop() called on ds3 at Mon Apr 27 08:46:45 2020
Module time:
	user time   =      59.34 seconds =       0.99 minutes
	system time =      20.42 seconds =       0.34 minutes
	total time  =        306 seconds =       5.10 minutes
Total time:
	user time   =      59.34 seconds =       0.99 minutes
	system time =      20.42 seconds =       0.34 minutes
	total time  =        306 seconds =       5.10 minutes
                                     G D M A

                                 by Anthony Stone

                           version 2.2.06, 22 June 2011

               Distributed Multipoles from Gaussian wavefunctions


Starting at 8:46:45 on 27 Apr 2020  


Using SCF density matrix from file ./SSI/SSI-033ARG-189PRO-1-dimer.test.1059.fchk


                         Distributed Multipole Analysis

Standard DMA

Positions and radii in angstrom
Multipole moments in atomic units, ea_0^k for rank k

C          x = -0.513971  y = -2.699112  z =  0.013758 angstrom
           Maximum rank =  0   Radius =  0.650 angstrom
                   Q00  =  -0.125481

C          x =  0.237029  y = -0.756112  z =  1.344758 angstrom
           Maximum rank =  0   Radius =  0.650 angstrom
                   Q00  =   1.079938

N          x =  0.447029  y = -1.664112  z =  0.406758 angstrom
           Maximum rank =  0   Radius =  0.650 angstrom
                   Q00  =  -0.492245

N          x = -0.904971  y = -0.735112  z =  2.007758 angstrom
           Maximum rank =  0   Radius =  0.650 angstrom
                   Q00  =  -0.583850

N          x =  1.161029  y =  0.145888  z =  1.605758 angstrom
           Maximum rank =  0   Radius =  0.650 angstrom
                   Q00  =  -0.597682

H          x =  1.390029  y = -1.708112  z =  0.013758 angstrom
           Maximum rank =  0   Radius =  0.325 angstrom
                   Q00  =   0.239203

H          x = -1.594971  y = -1.447112  z =  1.846758 angstrom
           Maximum rank =  0   Radius =  0.325 angstrom
                   Q00  =   0.269809

H          x = -1.063971  y = -0.044112  z =  2.724758 angstrom
           Maximum rank =  0   Radius =  0.325 angstrom
                   Q00  =   0.267202

H          x =  2.014029  y =  0.151888  z =  1.039758 angstrom
           Maximum rank =  0   Radius =  0.325 angstrom
                   Q00  =   0.270377

H          x =  1.027029  y =  0.837888  z =  2.323758 angstrom
           Maximum rank =  0   Radius =  0.325 angstrom
                   Q00  =   0.271196

H          x = -1.539971  y = -2.412112  z =  0.245758 angstrom
           Maximum rank =  0   Radius =  0.325 angstrom
                   Q00  =   0.115113

H          x = -0.280971  y = -3.615112  z =  0.562758 angstrom
           Maximum rank =  0   Radius =  0.325 angstrom
                   Q00  =   0.127275

H          x = -0.455451  y = -2.910086  z = -1.064232 angstrom
           Maximum rank =  0   Radius =  0.325 angstrom
                   Q00  =   0.160693

C          x = -0.657971  y =  1.733888  z = -1.468242 angstrom
           Maximum rank =  0   Radius =  0.650 angstrom
                   Q00  =  -0.098962

C          x =  0.102029  y =  3.055888  z = -1.473242 angstrom
           Maximum rank =  0   Radius =  0.650 angstrom
                   Q00  =  -0.221219

C          x =  0.109029  y =  0.926888  z = -2.501242 angstrom
           Maximum rank =  0   Radius =  0.650 angstrom
                   Q00  =  -0.203391

H          x = -1.688971  y =  1.889888  z = -1.787242 angstrom
           Maximum rank =  0   Radius =  0.325 angstrom
                   Q00  =   0.075657

H          x = -0.634971  y =  1.264888  z = -0.485242 angstrom
           Maximum rank =  0   Radius =  0.325 angstrom
                   Q00  =   0.004354

H          x = -0.556971  y =  3.870888  z = -1.172242 angstrom
           Maximum rank =  0   Radius =  0.325 angstrom
                   Q00  =   0.097178

H          x =  0.967029  y =  2.987888  z = -0.810242 angstrom
           Maximum rank =  0   Radius =  0.325 angstrom
                   Q00  =   0.061076

H          x = -0.444971  y =  0.046888  z = -2.827242 angstrom
           Maximum rank =  0   Radius =  0.325 angstrom
                   Q00  =   0.080296

H          x =  1.036029  y =  0.645888  z = -2.020242 angstrom
           Maximum rank =  0   Radius =  0.325 angstrom
                   Q00  =   0.043149

H          x =  0.434099  y =  3.153865  z = -2.517332 angstrom
           Maximum rank =  0   Radius =  0.325 angstrom
                   Q00  =   0.078459

H          x =  0.242909  y =  1.668681  z = -3.302382 angstrom
           Maximum rank =  0   Radius =  0.325 angstrom
                   Q00  =   0.081855

Total multipoles referred to origin at
           x =   0.000000,  y =    0.000000,  z =    0.000000 angstrom
                   Q00  =   1.000000

Finished at 8:46:45 on 27 Apr 2020  

  DMA results are available in the Python driver through the
	  variable('DMA DISTRIBUTED MULTIPOLES')
  and
	  variable('DMA TOTAL MULTIPOLES')
  commands.


    Psi4 stopped on: Monday, 27 April 2020 08:46AM
    Psi4 wall time for execution: 0:05:05.34

*** Psi4 exiting successfully. Buy a developer a beer!
