
    -----------------------------------------------------------------------
          Psi4: An Open-Source Ab Initio Electronic Structure Package
                               Psi4 1.3.2 release

                         Git: Rev {HEAD} ecbda83 


    R. M. Parrish, L. A. Burns, D. G. A. Smith, A. C. Simmonett,
    A. E. DePrince III, E. G. Hohenstein, U. Bozkaya, A. Yu. Sokolov,
    R. Di Remigio, R. M. Richard, J. F. Gonthier, A. M. James,
    H. R. McAlexander, A. Kumar, M. Saitow, X. Wang, B. P. Pritchard,
    P. Verma, H. F. Schaefer III, K. Patkowski, R. A. King, E. F. Valeev,
    F. A. Evangelista, J. M. Turney, T. D. Crawford, and C. D. Sherrill,
    J. Chem. Theory Comput. 13(7) pp 3185--3197 (2017).
    (doi: 10.1021/acs.jctc.7b00174)


                         Additional Contributions by
    P. Kraus, H. Kruse, M. H. Lechner, M. C. Schieber, R. A. Shaw,
    A. Alenaizan, R. Galvelis, Z. L. Glick, S. Lehtola, and J. P. Misiewicz

    -----------------------------------------------------------------------


    Psi4 started on: Tuesday, 28 April 2020 09:40PM

    Process ID: 23386
    Host:       ds3
    PSIDATADIR: /theoryfs2/ds/metcalf/miniconda2/envs/tf2gpu/share/psi4
    Memory:     500.0 MiB
    Threads:    1
    
  ==> Input File <==

--------------------------------------------------------------------------
import numpy as np
set {scf_type pk
basis cc-pvdz
d_convergence 10
gdma_switch   0
gdma_limit    0
gdma_origin   [ 0.0,  0.0,  0.0 ]
}
molecule test {
    units Angstrom
    0 1
    --
    0 1
    C                2.178042953117795    -0.027626623742621    -0.807293010273244
    C                3.550042953117794    -0.428626623742621    -0.282293010273244
    N                2.057042953117795    -0.258626623742621    -2.274293010273244
    H                1.417042953117795    -0.605626623742621    -0.272293010273244
    H                2.011042953117794     1.030373376257379    -0.578293010273244
    H                3.699042953117794    -1.494626623742621    -0.470293010273244
    H                3.583042953117794    -0.263626623742621     0.796706989726756
    H                2.147042953117794    -1.243626623742621    -2.497293010273244
    H                1.150042953117795     0.044373376257379    -2.612293010273244
    H                2.765042953117794     0.239373376257379    -2.809293010273243
    H                4.349002953117795     0.153683376257379    -0.764550910273244
    C               -1.173957046882205    -0.815626623742621     0.915706989726756
    C               -2.331957046882206    -1.410626623742621     1.702706989726757
    C               -1.457957046882205     0.612373376257379     0.479706989726756
    O               -2.515957046882206     0.850373376257379    -0.142293010273244
    O               -0.613957046882206     1.498373376257379     0.747706989726756
    H               -0.277957046882206    -0.839626623742621     1.541706989726756
    H               -0.978957046882206    -1.427626623742621     0.032706989726756
    H               -3.203957046882206    -1.514626623742621     1.054706989726756
    H               -2.583957046882206    -0.724626623742621     2.512706989726757
    H               -2.083117046882205    -2.387936623742621     2.141956989726756

}
e, wfn = energy('scf', return_wfn=True)
gdma(wfn)
dmavals = variable('DMA DISTRIBUTED MULTIPOLES')
charges = np.array(dmavals)
print(charges)
np.save('SSI-045LYS-084GLU-1-dimer.npy', np.array(charges))--------------------------------------------------------------------------

*** tstart() called on ds3
*** at Tue Apr 28 21:40:24 2020

   => Loading Basis Set <=

    Name: CC-PVDZ
    Role: ORBITAL
    Keyword: BASIS
    atoms 1-2, 12-14  entry C          line   138 file /theoryfs2/ds/metcalf/miniconda2/envs/tf2gpu/share/psi4/basis/cc-pvdz.gbs 
    atoms 3           entry N          line   168 file /theoryfs2/ds/metcalf/miniconda2/envs/tf2gpu/share/psi4/basis/cc-pvdz.gbs 
    atoms 4-11, 17-21 entry H          line    22 file /theoryfs2/ds/metcalf/miniconda2/envs/tf2gpu/share/psi4/basis/cc-pvdz.gbs 
    atoms 15-16       entry O          line   198 file /theoryfs2/ds/metcalf/miniconda2/envs/tf2gpu/share/psi4/basis/cc-pvdz.gbs 


         ---------------------------------------------------------
                                   SCF
               by Justin Turney, Rob Parrish, Andy Simmonett
                          and Daniel G. A. Smith
                              RHF Reference
                        1 Threads,    500 MiB Core
         ---------------------------------------------------------

  ==> Geometry <==

    Molecular point group: c1
    Full point group: C1

    Geometry (in Angstrom), charge = 0, multiplicity = 1:

       Center              X                  Y                   Z               Mass       
    ------------   -----------------  -----------------  -----------------  -----------------
         C            2.178042953118    -0.027626623743    -0.807293010273    12.000000000000
         C            3.550042953118    -0.428626623743    -0.282293010273    12.000000000000
         N            2.057042953118    -0.258626623743    -2.274293010273    14.003074004430
         H            1.417042953118    -0.605626623743    -0.272293010273     1.007825032230
         H            2.011042953118     1.030373376257    -0.578293010273     1.007825032230
         H            3.699042953118    -1.494626623743    -0.470293010273     1.007825032230
         H            3.583042953118    -0.263626623743     0.796706989727     1.007825032230
         H            2.147042953118    -1.243626623743    -2.497293010273     1.007825032230
         H            1.150042953118     0.044373376257    -2.612293010273     1.007825032230
         H            2.765042953118     0.239373376257    -2.809293010273     1.007825032230
         H            4.349002953118     0.153683376257    -0.764550910273     1.007825032230
         C           -1.173957046882    -0.815626623743     0.915706989727    12.000000000000
         C           -2.331957046882    -1.410626623743     1.702706989727    12.000000000000
         C           -1.457957046882     0.612373376257     0.479706989727    12.000000000000
         O           -2.515957046882     0.850373376257    -0.142293010273    15.994914619570
         O           -0.613957046882     1.498373376257     0.747706989727    15.994914619570
         H           -0.277957046882    -0.839626623743     1.541706989727     1.007825032230
         H           -0.978957046882    -1.427626623743     0.032706989727     1.007825032230
         H           -3.203957046882    -1.514626623743     1.054706989727     1.007825032230
         H           -2.583957046882    -0.724626623743     2.512706989727     1.007825032230
         H           -2.083117046882    -2.387936623743     2.141956989727     1.007825032230

  Running in c1 symmetry.

  Rotational constants: A =      0.08781  B =      0.02320  C =      0.02161 [cm^-1]
  Rotational constants: A =   2632.45952  B =    695.45662  C =    647.85207 [MHz]
  Nuclear repulsion =  375.232318153950530

  Charge       = 0
  Multiplicity = 1
  Electrons    = 66
  Nalpha       = 33
  Nbeta        = 33

  ==> Algorithm <==

  SCF Algorithm Type is PK.
  DIIS enabled.
  MOM disabled.
  Fractional occupation disabled.
  Guess Type is SAD.
  Energy threshold   = 1.00e-06
  Density threshold  = 1.00e-10
  Integral threshold = 0.00e+00

  ==> Primary Basis <==

  Basis Set: CC-PVDZ
    Blend: CC-PVDZ
    Number of shells: 87
    Number of basis function: 177
    Number of Cartesian functions: 185
    Spherical Harmonics?: true
    Max angular momentum: 2

  ==> Pre-Iterations <==

   -------------------------------------------------------
    Irrep   Nso     Nmo     Nalpha   Nbeta   Ndocc  Nsocc
   -------------------------------------------------------
     A        177     177       0       0       0       0
   -------------------------------------------------------
    Total     177     177      33      33      33       0
   -------------------------------------------------------

  ==> Integral Setup <==

  Using integral reordering PK algorithm.
  Sizing the integral batches needed.
  Building batch lookup table.
   Calculation information:
      Number of atoms:                  21
      Number of AO shells:              87
      Number of primitives:            241
      Number of atomic orbitals:       185
      Number of basis functions:       177

      Integral cutoff                 1.00e-12
      Number of threads:                 1

	Batch   1 pq = [       0,    9405] index = [             0,44231715] size =     44231715
	Batch   2 pq = [    9405,   13301] index = [      44231715,88464951] size =     44233236
	Batch   3 pq = [   13301,   15753] index = [      88464951,124086381] size =     35621430
  Task number: 12
  Buffer size: 11059200
  Buffer per thread: 2
  We computed 5807681 shell quartets total.
  Whereas there are 7328706 unique shell quartets.

  ==> DiskJK: Disk-Based J/K Matrices <==

    J tasked:                  Yes
    K tasked:                  Yes
    wK tasked:                  No
    Memory [MiB]:              375
    Schwarz Cutoff:          1E-12

    OpenMP threads:              1

  Minimum eigenvalue in the overlap matrix is 4.1610606077E-03.
  Using Symmetric Orthogonalization.

  SCF Guess: Superposition of Atomic Densities via on-the-fly atomic UHF.

  ==> Iterations <==

                        Total Energy        Delta E     RMS |[F,P]|

   @RHF iter SAD:  -399.69203396590962   -3.99692e+02   0.00000e+00 
   @RHF iter   1:  -400.71448681343497   -1.02245e+00   4.29606e-03 DIIS
   @RHF iter   2:  -400.95479475315847   -2.40308e-01   2.32058e-03 DIIS
   @RHF iter   3:  -401.01718954437257   -6.23948e-02   4.14029e-04 DIIS
   @RHF iter   4:  -401.02080531082208   -3.61577e-03   1.47672e-04 DIIS
   @RHF iter   5:  -401.02124033814761   -4.35027e-04   2.58194e-05 DIIS
   @RHF iter   6:  -401.02125988926116   -1.95511e-05   6.76129e-06 DIIS
   @RHF iter   7:  -401.02126101997010   -1.13071e-06   2.74786e-06 DIIS
   @RHF iter   8:  -401.02126117759639   -1.57626e-07   1.00064e-06 DIIS
   @RHF iter   9:  -401.02126120073990   -2.31435e-08   2.68753e-07 DIIS
   @RHF iter  10:  -401.02126120389812   -3.15822e-09   1.09285e-07 DIIS
   @RHF iter  11:  -401.02126120444859   -5.50472e-10   3.78481e-08 DIIS
   @RHF iter  12:  -401.02126120452874   -8.01492e-11   1.12074e-08 DIIS
   @RHF iter  13:  -401.02126120453426   -5.51381e-12   3.79964e-09 DIIS
   @RHF iter  14:  -401.02126120453562   -1.36424e-12   1.06103e-09 DIIS
   @RHF iter  15:  -401.02126120453494    6.82121e-13   3.24538e-10 DIIS
   @RHF iter  16:  -401.02126120453426    6.82121e-13   1.27275e-10 DIIS
   @RHF iter  17:  -401.02126120453460   -3.41061e-13   5.85306e-11 DIIS
  Energy and wave function converged.


  ==> Post-Iterations <==

    Orbital Energies [Eh]
    ---------------------

    Doubly Occupied:                                                      

       1A    -20.374250     2A    -20.366875     3A    -15.798055  
       4A    -11.358733     5A    -11.304399     6A    -11.223697  
       7A    -11.169910     8A    -11.165578     9A     -1.415681  
      10A     -1.260299    11A     -1.145784    12A     -1.110557  
      13A     -0.978580    14A     -0.946340    15A     -0.872663  
      16A     -0.859703    17A     -0.807095    18A     -0.747583  
      19A     -0.685535    20A     -0.619777    21A     -0.618680  
      22A     -0.590791    23A     -0.576836    24A     -0.561923  
      25A     -0.536243    26A     -0.495814    27A     -0.473408  
      28A     -0.460556    29A     -0.429385    30A     -0.410665  
      31A     -0.291670    32A     -0.281389    33A     -0.270134  

    Virtual:                                                              

      34A      0.051036    35A      0.113898    36A      0.128628  
      37A      0.146717    38A      0.206809    39A      0.209574  
      40A      0.211640    41A      0.228655    42A      0.243047  
      43A      0.262214    44A      0.287599    45A      0.310229  
      46A      0.311977    47A      0.326357    48A      0.333084  
      49A      0.371586    50A      0.447413    51A      0.481121  
      52A      0.488503    53A      0.506383    54A      0.527119  
      55A      0.541582    56A      0.565259    57A      0.587271  
      58A      0.625680    59A      0.666527    60A      0.691347  
      61A      0.715957    62A      0.731144    63A      0.747582  
      64A      0.761818    65A      0.774056    66A      0.808905  
      67A      0.812652    68A      0.817396    69A      0.844188  
      70A      0.863386    71A      0.874202    72A      0.884800  
      73A      0.900224    74A      0.909830    75A      0.920583  
      76A      0.929746    77A      0.935679    78A      0.948327  
      79A      0.956679    80A      0.964779    81A      0.966336  
      82A      0.986359    83A      1.020698    84A      1.024438  
      85A      1.044819    86A      1.066008    87A      1.133708  
      88A      1.180593    89A      1.206010    90A      1.218044  
      91A      1.290771    92A      1.303153    93A      1.369864  
      94A      1.378705    95A      1.401663    96A      1.412425  
      97A      1.458817    98A      1.487377    99A      1.503743  
     100A      1.515671   101A      1.541745   102A      1.560225  
     103A      1.567298   104A      1.579689   105A      1.597975  
     106A      1.604357   107A      1.628564   108A      1.698615  
     109A      1.740623   110A      1.766191   111A      1.782468  
     112A      1.795529   113A      1.821336   114A      1.846007  
     115A      1.852311   116A      1.879852   117A      1.881578  
     118A      1.896821   119A      1.913538   120A      1.941501  
     121A      1.957669   122A      1.976465   123A      1.985577  
     124A      1.993803   125A      1.996705   126A      2.014682  
     127A      2.030588   128A      2.047445   129A      2.063859  
     130A      2.086830   131A      2.089387   132A      2.102468  
     133A      2.136885   134A      2.147831   135A      2.176503  
     136A      2.223223   137A      2.256627   138A      2.266334  
     139A      2.272933   140A      2.290956   141A      2.374468  
     142A      2.382581   143A      2.409011   144A      2.419866  
     145A      2.440124   146A      2.487034   147A      2.520403  
     148A      2.540229   149A      2.556610   150A      2.622635  
     151A      2.638427   152A      2.645591   153A      2.649483  
     154A      2.688010   155A      2.727802   156A      2.731363  
     157A      2.774462   158A      2.818687   159A      2.854124  
     160A      2.884045   161A      2.893737   162A      2.912605  
     163A      2.947638   164A      2.989182   165A      3.017168  
     166A      3.139249   167A      3.175724   168A      3.192588  
     169A      3.204931   170A      3.234231   171A      3.254516  
     172A      3.528840   173A      3.678661   174A      3.714691  
     175A      3.946946   176A      3.978591   177A      4.088665  

    Final Occupation by Irrep:
              A 
    DOCC [    33 ]

  @RHF Final Energy:  -401.02126120453460

   => Energetics <=

    Nuclear Repulsion Energy =            375.2323181539505299
    One-Electron Energy =               -1292.0899748960605393
    Two-Electron Energy =                 515.8363955375755268
    Total Energy =                       -401.0212612045345395

Computation Completed


Properties will be evaluated at   0.000000,   0.000000,   0.000000 [a0]

Properties computed using the SCF density matrix

  Nuclear Dipole Moment: [e a0]
     X:    11.2224      Y:    -8.4572      Z:    -1.7940

  Electronic Dipole Moment: [e a0]
     X:    -4.7709      Y:     5.8277      Z:    -2.1224

  Dipole Moment: [e a0]
     X:     6.4515      Y:    -2.6295      Z:    -3.9164     Total:     7.9922

  Dipole Moment: [D]
     X:    16.3981      Y:    -6.6836      Z:    -9.9546     Total:    20.3140


*** tstop() called on ds3 at Tue Apr 28 21:41:22 2020
Module time:
	user time   =      39.90 seconds =       0.67 minutes
	system time =      19.30 seconds =       0.32 minutes
	total time  =         58 seconds =       0.97 minutes
Total time:
	user time   =      39.90 seconds =       0.67 minutes
	system time =      19.30 seconds =       0.32 minutes
	total time  =         58 seconds =       0.97 minutes
                                     G D M A

                                 by Anthony Stone

                           version 2.2.06, 22 June 2011

               Distributed Multipoles from Gaussian wavefunctions


Starting at 21:41:22 on 28 Apr 2020 


Using SCF density matrix from file ./SSI/SSI-045LYS-084GLU-1-dimer.test.23386.fchk


                         Distributed Multipole Analysis

Standard DMA

Positions and radii in angstrom
Multipole moments in atomic units, ea_0^k for rank k

C          x =  2.178043  y = -0.027627  z = -0.807293 angstrom
           Maximum rank =  0   Radius =  0.650 angstrom
                   Q00  =  -0.004188

C          x =  3.550043  y = -0.428627  z = -0.282293 angstrom
           Maximum rank =  0   Radius =  0.650 angstrom
                   Q00  =  -0.243855

N          x =  2.057043  y = -0.258627  z = -2.274293 angstrom
           Maximum rank =  0   Radius =  0.650 angstrom
                   Q00  =  -0.129744

H          x =  1.417043  y = -0.605627  z = -0.272293 angstrom
           Maximum rank =  0   Radius =  0.325 angstrom
                   Q00  =   0.149103

H          x =  2.011043  y =  1.030373  z = -0.578293 angstrom
           Maximum rank =  0   Radius =  0.325 angstrom
                   Q00  =   0.141591

H          x =  3.699043  y = -1.494627  z = -0.470293 angstrom
           Maximum rank =  0   Radius =  0.325 angstrom
                   Q00  =   0.084217

H          x =  3.583043  y = -0.263627  z =  0.796707 angstrom
           Maximum rank =  0   Radius =  0.325 angstrom
                   Q00  =   0.154415

H          x =  2.147043  y = -1.243627  z = -2.497293 angstrom
           Maximum rank =  0   Radius =  0.325 angstrom
                   Q00  =   0.239745

H          x =  1.150043  y =  0.044373  z = -2.612293 angstrom
           Maximum rank =  0   Radius =  0.325 angstrom
                   Q00  =   0.270579

H          x =  2.765043  y =  0.239373  z = -2.809293 angstrom
           Maximum rank =  0   Radius =  0.325 angstrom
                   Q00  =   0.242551

H          x =  4.349003  y =  0.153683  z = -0.764551 angstrom
           Maximum rank =  0   Radius =  0.325 angstrom
                   Q00  =   0.089690

C          x = -1.173957  y = -0.815627  z =  0.915707 angstrom
           Maximum rank =  0   Radius =  0.650 angstrom
                   Q00  =  -0.143268

C          x = -2.331957  y = -1.410627  z =  1.702707 angstrom
           Maximum rank =  0   Radius =  0.650 angstrom
                   Q00  =  -0.191086

C          x = -1.457957  y =  0.612373  z =  0.479707 angstrom
           Maximum rank =  0   Radius =  0.650 angstrom
                   Q00  =   0.969851

O          x = -2.515957  y =  0.850373  z = -0.142293 angstrom
           Maximum rank =  0   Radius =  0.650 angstrom
                   Q00  =  -0.927913

O          x = -0.613957  y =  1.498373  z =  0.747707 angstrom
           Maximum rank =  0   Radius =  0.650 angstrom
                   Q00  =  -0.937774

H          x = -0.277957  y = -0.839627  z =  1.541707 angstrom
           Maximum rank =  0   Radius =  0.325 angstrom
                   Q00  =   0.008719

H          x = -0.978957  y = -1.427627  z =  0.032707 angstrom
           Maximum rank =  0   Radius =  0.325 angstrom
                   Q00  =   0.004866

H          x = -3.203957  y = -1.514627  z =  1.054707 angstrom
           Maximum rank =  0   Radius =  0.325 angstrom
                   Q00  =   0.097704

H          x = -2.583957  y = -0.724627  z =  2.512707 angstrom
           Maximum rank =  0   Radius =  0.325 angstrom
                   Q00  =   0.089164

H          x = -2.083117  y = -2.387937  z =  2.141957 angstrom
           Maximum rank =  0   Radius =  0.325 angstrom
                   Q00  =   0.035631

Total multipoles referred to origin at
           x =   0.000000,  y =    0.000000,  z =    0.000000 angstrom
                   Q00  =  -0.000000

Finished at 21:41:22 on 28 Apr 2020 

  DMA results are available in the Python driver through the
	  variable('DMA DISTRIBUTED MULTIPOLES')
  and
	  variable('DMA TOTAL MULTIPOLES')
  commands.


    Psi4 stopped on: Tuesday, 28 April 2020 09:41PM
    Psi4 wall time for execution: 0:00:57.51

*** Psi4 exiting successfully. Buy a developer a beer!
