
    -----------------------------------------------------------------------
          Psi4: An Open-Source Ab Initio Electronic Structure Package
                               Psi4 1.3.2 release

                         Git: Rev {HEAD} ecbda83 


    R. M. Parrish, L. A. Burns, D. G. A. Smith, A. C. Simmonett,
    A. E. DePrince III, E. G. Hohenstein, U. Bozkaya, A. Yu. Sokolov,
    R. Di Remigio, R. M. Richard, J. F. Gonthier, A. M. James,
    H. R. McAlexander, A. Kumar, M. Saitow, X. Wang, B. P. Pritchard,
    P. Verma, H. F. Schaefer III, K. Patkowski, R. A. King, E. F. Valeev,
    F. A. Evangelista, J. M. Turney, T. D. Crawford, and C. D. Sherrill,
    J. Chem. Theory Comput. 13(7) pp 3185--3197 (2017).
    (doi: 10.1021/acs.jctc.7b00174)


                         Additional Contributions by
    P. Kraus, H. Kruse, M. H. Lechner, M. C. Schieber, R. A. Shaw,
    A. Alenaizan, R. Galvelis, Z. L. Glick, S. Lehtola, and J. P. Misiewicz

    -----------------------------------------------------------------------


    Psi4 started on: Sunday, 26 April 2020 05:19PM

    Process ID: 18159
    Host:       ds3
    PSIDATADIR: /theoryfs2/ds/metcalf/miniconda2/envs/tf2gpu/share/psi4
    Memory:     500.0 MiB
    Threads:    1
    
  ==> Input File <==

--------------------------------------------------------------------------
import numpy as np
set {scf_type pk
basis cc-pvdz
d_convergence 10
gdma_switch   0
gdma_limit    0
gdma_origin   [ 0.0,  0.0,  0.0 ]
}
molecule test {
    units Angstrom
    0 1
    --
    0 1
    C                0.738265285701021     1.415318652453100     3.225127375888005
    C               -2.019734714298979    -0.608681347546900     0.613127375888005
    C               -1.556734714298979    -1.252681347546900     1.748127375888005
    C               -1.594734714298979     0.684318652453100     0.317127375888005
    C               -0.657734714298979    -0.595681347546900     2.607127375888006
    C               -0.701734714298979     1.340318652453100     1.172127375888005
    C               -0.227734714298979     0.705318652453100     2.321127375888006
    H               -2.712734714298979    -1.113681347546900    -0.043872624111995
    H               -1.895734714298979    -2.252681347546900     1.980127375888005
    H               -1.946734714298979     1.179318652453100    -0.575872624111995
    H               -0.303734714298979    -1.098681347546900     3.496127375888005
    H               -0.376734714298979     2.343318652453100     0.931127375888005
    H                0.437265285701021     1.238318652453100     4.258127375888005
    H                0.683265285701021     2.488318652453100     3.042127375888005
    H                1.783445285701021     1.096878652453100     3.097897375888006
    C                0.998265285701021    -1.210681347546900    -1.554872624111995
    C               -0.242734714298979    -1.832681347546900    -2.171872624111995
    C                1.344265285701021     0.100318652453100    -2.214872624111994
    O                0.484265285701021     0.964318652453100    -2.387872624111995
    N                2.601265285701021     0.277318652453100    -2.586872624111995
    H                0.831265285701021    -1.038681347546900    -0.492872624111995
    H                1.837265285701021    -1.896681347546900    -1.660872624111995
    H               -0.086734714298979    -1.929681347546900    -3.245872624111994
    H               -1.084734714298979    -1.156681347546900    -2.017872624111994
    H                2.864265285701021     1.150318652453100    -3.010872624111995
    H                3.312265285701021    -0.413681347546900    -2.360872624111995
    H               -0.491524714298979    -2.812771347546900    -1.738822624111995

}
e, wfn = energy('scf', return_wfn=True)
gdma(wfn)
dmavals = variable('DMA DISTRIBUTED MULTIPOLES')
charges = np.array(dmavals)
print(charges)
np.save('SSI-049PHE-057GLN-2-dimer.npy', np.array(charges))--------------------------------------------------------------------------

*** tstart() called on ds3
*** at Sun Apr 26 17:19:50 2020

   => Loading Basis Set <=

    Name: CC-PVDZ
    Role: ORBITAL
    Keyword: BASIS
    atoms 1-7, 16-18  entry C          line   138 file /theoryfs2/ds/metcalf/miniconda2/envs/tf2gpu/share/psi4/basis/cc-pvdz.gbs 
    atoms 8-15, 21-27 entry H          line    22 file /theoryfs2/ds/metcalf/miniconda2/envs/tf2gpu/share/psi4/basis/cc-pvdz.gbs 
    atoms 19          entry O          line   198 file /theoryfs2/ds/metcalf/miniconda2/envs/tf2gpu/share/psi4/basis/cc-pvdz.gbs 
    atoms 20          entry N          line   168 file /theoryfs2/ds/metcalf/miniconda2/envs/tf2gpu/share/psi4/basis/cc-pvdz.gbs 


         ---------------------------------------------------------
                                   SCF
               by Justin Turney, Rob Parrish, Andy Simmonett
                          and Daniel G. A. Smith
                              RHF Reference
                        1 Threads,    500 MiB Core
         ---------------------------------------------------------

  ==> Geometry <==

    Molecular point group: c1
    Full point group: C1

    Geometry (in Angstrom), charge = 0, multiplicity = 1:

       Center              X                  Y                   Z               Mass       
    ------------   -----------------  -----------------  -----------------  -----------------
         C            0.738265285701     1.415318652453     3.225127375888    12.000000000000
         C           -2.019734714299    -0.608681347547     0.613127375888    12.000000000000
         C           -1.556734714299    -1.252681347547     1.748127375888    12.000000000000
         C           -1.594734714299     0.684318652453     0.317127375888    12.000000000000
         C           -0.657734714299    -0.595681347547     2.607127375888    12.000000000000
         C           -0.701734714299     1.340318652453     1.172127375888    12.000000000000
         C           -0.227734714299     0.705318652453     2.321127375888    12.000000000000
         H           -2.712734714299    -1.113681347547    -0.043872624112     1.007825032230
         H           -1.895734714299    -2.252681347547     1.980127375888     1.007825032230
         H           -1.946734714299     1.179318652453    -0.575872624112     1.007825032230
         H           -0.303734714299    -1.098681347547     3.496127375888     1.007825032230
         H           -0.376734714299     2.343318652453     0.931127375888     1.007825032230
         H            0.437265285701     1.238318652453     4.258127375888     1.007825032230
         H            0.683265285701     2.488318652453     3.042127375888     1.007825032230
         H            1.783445285701     1.096878652453     3.097897375888     1.007825032230
         C            0.998265285701    -1.210681347547    -1.554872624112    12.000000000000
         C           -0.242734714299    -1.832681347547    -2.171872624112    12.000000000000
         C            1.344265285701     0.100318652453    -2.214872624112    12.000000000000
         O            0.484265285701     0.964318652453    -2.387872624112    15.994914619570
         N            2.601265285701     0.277318652453    -2.586872624112    14.003074004430
         H            0.831265285701    -1.038681347547    -0.492872624112     1.007825032230
         H            1.837265285701    -1.896681347547    -1.660872624112     1.007825032230
         H           -0.086734714299    -1.929681347547    -3.245872624112     1.007825032230
         H           -1.084734714299    -1.156681347547    -2.017872624112     1.007825032230
         H            2.864265285701     1.150318652453    -3.010872624112     1.007825032230
         H            3.312265285701    -0.413681347547    -2.360872624112     1.007825032230
         H           -0.491524714299    -2.812771347547    -1.738822624112     1.007825032230

  Running in c1 symmetry.

  Rotational constants: A =      0.04232  B =      0.01728  C =      0.01485 [cm^-1]
  Rotational constants: A =   1268.59134  B =    518.16654  C =    445.08156 [MHz]
  Nuclear repulsion =  671.298350640823401

  Charge       = 0
  Multiplicity = 1
  Electrons    = 90
  Nalpha       = 45
  Nbeta        = 45

  ==> Algorithm <==

  SCF Algorithm Type is PK.
  DIIS enabled.
  MOM disabled.
  Fractional occupation disabled.
  Guess Type is SAD.
  Energy threshold   = 1.00e-06
  Density threshold  = 1.00e-10
  Integral threshold = 0.00e+00

  ==> Primary Basis <==

  Basis Set: CC-PVDZ
    Blend: CC-PVDZ
    Number of shells: 117
    Number of basis function: 243
    Number of Cartesian functions: 255
    Spherical Harmonics?: true
    Max angular momentum: 2

  ==> Pre-Iterations <==

   -------------------------------------------------------
    Irrep   Nso     Nmo     Nalpha   Nbeta   Ndocc  Nsocc
   -------------------------------------------------------
     A        243     243       0       0       0       0
   -------------------------------------------------------
    Total     243     243      45      45      45       0
   -------------------------------------------------------

  ==> Integral Setup <==

  Using integral reordering PK algorithm.
  Sizing the integral batches needed.
  Building batch lookup table.
   Calculation information:
      Number of atoms:                  27
      Number of AO shells:             117
      Number of primitives:            339
      Number of atomic orbitals:       255
      Number of basis functions:       243

      Integral cutoff                 1.00e-12
      Number of threads:                 1

	Batch   1 pq = [       0,    9405] index = [             0,44231715] size =     44231715
	Batch   2 pq = [    9405,   13301] index = [      44231715,88464951] size =     44233236
	Batch   3 pq = [   13301,   16290] index = [      88464951,132690195] size =     44225244
	Batch   4 pq = [   16290,   18810] index = [     132690195,176917455] size =     44227260
	Batch   5 pq = [   18810,   21030] index = [     176917455,221140965] size =     44223510
	Batch   6 pq = [   21030,   23037] index = [     221140965,265363203] size =     44222238
	Batch   7 pq = [   23037,   24883] index = [     265363203,309594286] size =     44231083
	Batch   8 pq = [   24883,   26601] index = [     309594286,353819901] size =     44225615
	Batch   9 pq = [   26601,   28214] index = [     353819901,398029005] size =     44209104
	Batch  10 pq = [   28214,   29646] index = [     398029005,439457481] size =     41428476
  Task number: 40
  Buffer size: 11059200
  Buffer per thread: 2
  We computed 24180397 shell quartets total.
  Whereas there are 23829156 unique shell quartets.
     1.47 percent of shell quartets recomputed by reordering.

  ==> DiskJK: Disk-Based J/K Matrices <==

    J tasked:                  Yes
    K tasked:                  Yes
    wK tasked:                  No
    Memory [MiB]:              375
    Schwarz Cutoff:          1E-12

    OpenMP threads:              1

  Minimum eigenvalue in the overlap matrix is 3.1800352092E-04.
  Using Symmetric Orthogonalization.

  SCF Guess: Superposition of Atomic Densities via on-the-fly atomic UHF.

  ==> Iterations <==

                        Total Energy        Delta E     RMS |[F,P]|

   @RHF iter SAD:  -515.48053652508622   -5.15481e+02   0.00000e+00 
   @RHF iter   1:  -516.46860196241050   -9.88065e-01   3.00189e-03 DIIS
   @RHF iter   2:  -516.72453080203923   -2.55929e-01   1.58203e-03 DIIS
   @RHF iter   3:  -516.78507667147346   -6.05459e-02   3.71078e-04 DIIS
   @RHF iter   4:  -516.78975964954236   -4.68298e-03   1.50972e-04 DIIS
   @RHF iter   5:  -516.79052296682187   -7.63317e-04   2.13154e-05 DIIS
   @RHF iter   6:  -516.79055620841268   -3.32416e-05   8.97945e-06 DIIS
   @RHF iter   7:  -516.79056139537283   -5.18696e-06   3.57991e-06 DIIS
   @RHF iter   8:  -516.79056241411536   -1.01874e-06   1.45770e-06 DIIS
   @RHF iter   9:  -516.79056258299750   -1.68882e-07   5.60142e-07 DIIS
   @RHF iter  10:  -516.79056260247023   -1.94727e-08   1.58936e-07 DIIS
   @RHF iter  11:  -516.79056260442667   -1.95644e-09   4.56684e-08 DIIS
   @RHF iter  12:  -516.79056260455866   -1.31990e-10   1.70441e-08 DIIS
   @RHF iter  13:  -516.79056260458469   -2.60343e-11   6.36367e-09 DIIS
   @RHF iter  14:  -516.79056260459106   -6.36646e-12   3.27204e-09 DIIS
   @RHF iter  15:  -516.79056260458560    5.45697e-12   1.54081e-09 DIIS
   @RHF iter  16:  -516.79056260458844   -2.84217e-12   5.98626e-10 DIIS
   @RHF iter  17:  -516.79056260458549    2.95586e-12   2.15467e-10 DIIS
   @RHF iter  18:  -516.79056260458583   -3.41061e-13   6.22113e-11 DIIS
  Energy and wave function converged.


  ==> Post-Iterations <==

    Orbital Energies [Eh]
    ---------------------

    Doubly Occupied:                                                      

       1A    -20.498380     2A    -15.587153     3A    -11.339166  
       4A    -11.236530     5A    -11.232214     6A    -11.230496  
       7A    -11.228102     8A    -11.226891     9A    -11.226032  
      10A    -11.223824    11A    -11.223556    12A    -11.218390  
      13A     -1.362696    14A     -1.213536    15A     -1.144801  
      16A     -1.045334    17A     -1.039875    18A     -1.001955  
      19A     -0.926693    20A     -0.883594    21A     -0.819147  
      22A     -0.787451    23A     -0.782974    24A     -0.719151  
      25A     -0.684222    26A     -0.662282    27A     -0.625535  
      28A     -0.623405    29A     -0.621766    30A     -0.582184  
      31A     -0.573734    32A     -0.572767    33A     -0.558117  
      34A     -0.556176    35A     -0.531039    36A     -0.518451  
      37A     -0.498553    38A     -0.485715    39A     -0.479376  
      40A     -0.477772    41A     -0.474636    42A     -0.403342  
      43A     -0.400253    44A     -0.323376    45A     -0.316856  

    Virtual:                                                              

      46A      0.139215    47A      0.146830    48A      0.170660  
      49A      0.184243    50A      0.197552    51A      0.211711  
      52A      0.220186    53A      0.225709    54A      0.238660  
      55A      0.249594    56A      0.252103    57A      0.259510  
      58A      0.269056    59A      0.284134    60A      0.286414  
      61A      0.297748    62A      0.301312    63A      0.338546  
      64A      0.370343    65A      0.380053    66A      0.397261  
      67A      0.417724    68A      0.459011    69A      0.463792  
      70A      0.470346    71A      0.489626    72A      0.503087  
      73A      0.561212    74A      0.573353    75A      0.595400  
      76A      0.606069    77A      0.633201    78A      0.637190  
      79A      0.659423    80A      0.673369    81A      0.683695  
      82A      0.699278    83A      0.708348    84A      0.711093  
      85A      0.735284    86A      0.741321    87A      0.747882  
      88A      0.751966    89A      0.760971    90A      0.768820  
      91A      0.783685    92A      0.797790    93A      0.808030  
      94A      0.823097    95A      0.833960    96A      0.847585  
      97A      0.858904    98A      0.869797    99A      0.871817  
     100A      0.882911   101A      0.894397   102A      0.899697  
     103A      0.903397   104A      0.905308   105A      0.917757  
     106A      0.928109   107A      0.930272   108A      0.940092  
     109A      0.943842   110A      0.950946   111A      0.960322  
     112A      0.978183   113A      1.000352   114A      1.002148  
     115A      1.022923   116A      1.032369   117A      1.047950  
     118A      1.068779   119A      1.104172   120A      1.120678  
     121A      1.128361   122A      1.141526   123A      1.146492  
     124A      1.161396   125A      1.176923   126A      1.206303  
     127A      1.230656   128A      1.244941   129A      1.256367  
     130A      1.259999   131A      1.292429   132A      1.306926  
     133A      1.313840   134A      1.322278   135A      1.326656  
     136A      1.344884   137A      1.384825   138A      1.412353  
     139A      1.419598   140A      1.441833   141A      1.445981  
     142A      1.476234   143A      1.510134   144A      1.519214  
     145A      1.531662   146A      1.545204   147A      1.569020  
     148A      1.611757   149A      1.657641   150A      1.685572  
     151A      1.699967   152A      1.701201   153A      1.720146  
     154A      1.746543   155A      1.751250   156A      1.762150  
     157A      1.786317   158A      1.808437   159A      1.829009  
     160A      1.838754   161A      1.855648   162A      1.867471  
     163A      1.885947   164A      1.903279   165A      1.906711  
     166A      1.914251   167A      1.921614   168A      1.925139  
     169A      1.929989   170A      1.940076   171A      1.942733  
     172A      1.953228   173A      1.957789   174A      1.969077  
     175A      1.978041   176A      1.983583   177A      1.989237  
     178A      1.996414   179A      2.016964   180A      2.022076  
     181A      2.056491   182A      2.059931   183A      2.063305  
     184A      2.077749   185A      2.084716   186A      2.104138  
     187A      2.120478   188A      2.149778   189A      2.159264  
     190A      2.169624   191A      2.179193   192A      2.187690  
     193A      2.213711   194A      2.222727   195A      2.252153  
     196A      2.278611   197A      2.296768   198A      2.300214  
     199A      2.307885   200A      2.317487   201A      2.332145  
     202A      2.355338   203A      2.403619   204A      2.451299  
     205A      2.465581   206A      2.477338   207A      2.487943  
     208A      2.507644   209A      2.514727   210A      2.541456  
     211A      2.568278   212A      2.585363   213A      2.608974  
     214A      2.626690   215A      2.652335   216A      2.745609  
     217A      2.756833   218A      2.770882   219A      2.785399  
     220A      2.786747   221A      2.805189   222A      2.812746  
     223A      2.852603   224A      2.861984   225A      2.876709  
     226A      2.901927   227A      2.925209   228A      2.968587  
     229A      2.991638   230A      3.003597   231A      3.021444  
     232A      3.042271   233A      3.111849   234A      3.142135  
     235A      3.160606   236A      3.203102   237A      3.282859  
     238A      3.297854   239A      3.521369   240A      3.526796  
     241A      3.880902   242A      3.914111   243A      3.967335  

    Final Occupation by Irrep:
              A 
    DOCC [    45 ]

  @RHF Final Energy:  -516.79056260458583

   => Energetics <=

    Nuclear Repulsion Energy =            671.2983506408234007
    One-Electron Energy =               -2033.8428244053698108
    Two-Electron Energy =                 845.7539111599605803
    Total Energy =                       -516.7905626045858298

Computation Completed


Properties will be evaluated at   0.000000,   0.000000,   0.000000 [a0]

Properties computed using the SCF density matrix

  Nuclear Dipole Moment: [e a0]
     X:     2.6669      Y:    -3.9492      Z:     1.5501

  Electronic Dipole Moment: [e a0]
     X:    -1.2798      Y:     3.2051      Z:    -1.3993

  Dipole Moment: [e a0]
     X:     1.3872      Y:    -0.7441      Z:     0.1508     Total:     1.5813

  Dipole Moment: [D]
     X:     3.5258      Y:    -1.8914      Z:     0.3832     Total:     4.0194


*** tstop() called on ds3 at Sun Apr 26 17:24:41 2020
Module time:
	user time   =     190.30 seconds =       3.17 minutes
	system time =      79.22 seconds =       1.32 minutes
	total time  =        291 seconds =       4.85 minutes
Total time:
	user time   =     190.30 seconds =       3.17 minutes
	system time =      79.22 seconds =       1.32 minutes
	total time  =        291 seconds =       4.85 minutes
                                     G D M A

                                 by Anthony Stone

                           version 2.2.06, 22 June 2011

               Distributed Multipoles from Gaussian wavefunctions


Starting at 17:24:41 on 26 Apr 2020 


Using SCF density matrix from file ./SSI/SSI-049PHE-057GLN-2-dimer.test.18159.fchk


                         Distributed Multipole Analysis

Standard DMA

Positions and radii in angstrom
Multipole moments in atomic units, ea_0^k for rank k

C          x =  0.738265  y =  1.415319  z =  3.225127 angstrom
           Maximum rank =  0   Radius =  0.650 angstrom
                   Q00  =  -0.201949

C          x = -2.019735  y = -0.608681  z =  0.613127 angstrom
           Maximum rank =  0   Radius =  0.650 angstrom
                   Q00  =  -0.101160

C          x = -1.556735  y = -1.252681  z =  1.748127 angstrom
           Maximum rank =  0   Radius =  0.650 angstrom
                   Q00  =  -0.072927

C          x = -1.594735  y =  0.684319  z =  0.317127 angstrom
           Maximum rank =  0   Radius =  0.650 angstrom
                   Q00  =  -0.006416

C          x = -0.657735  y = -0.595681  z =  2.607127 angstrom
           Maximum rank =  0   Radius =  0.650 angstrom
                   Q00  =  -0.048470

C          x = -0.701735  y =  1.340319  z =  1.172127 angstrom
           Maximum rank =  0   Radius =  0.650 angstrom
                   Q00  =  -0.083399

C          x = -0.227735  y =  0.705319  z =  2.321127 angstrom
           Maximum rank =  0   Radius =  0.650 angstrom
                   Q00  =  -0.101941

H          x = -2.712735  y = -1.113681  z = -0.043873 angstrom
           Maximum rank =  0   Radius =  0.325 angstrom
                   Q00  =   0.057917

H          x = -1.895735  y = -2.252681  z =  1.980127 angstrom
           Maximum rank =  0   Radius =  0.325 angstrom
                   Q00  =   0.062534

H          x = -1.946735  y =  1.179319  z = -0.575873 angstrom
           Maximum rank =  0   Radius =  0.325 angstrom
                   Q00  =   0.083942

H          x = -0.303735  y = -1.098681  z =  3.496127 angstrom
           Maximum rank =  0   Radius =  0.325 angstrom
                   Q00  =   0.054381

H          x = -0.376735  y =  2.343319  z =  0.931127 angstrom
           Maximum rank =  0   Radius =  0.325 angstrom
                   Q00  =   0.062197

H          x =  0.437265  y =  1.238319  z =  4.258127 angstrom
           Maximum rank =  0   Radius =  0.325 angstrom
                   Q00  =   0.097399

H          x =  0.683265  y =  2.488319  z =  3.042127 angstrom
           Maximum rank =  0   Radius =  0.325 angstrom
                   Q00  =   0.098658

H          x =  1.783445  y =  1.096879  z =  3.097897 angstrom
           Maximum rank =  0   Radius =  0.325 angstrom
                   Q00  =   0.100064

C          x =  0.998265  y = -1.210681  z = -1.554873 angstrom
           Maximum rank =  0   Radius =  0.650 angstrom
                   Q00  =  -0.159452

C          x = -0.242735  y = -1.832681  z = -2.171873 angstrom
           Maximum rank =  0   Radius =  0.650 angstrom
                   Q00  =  -0.197343

C          x =  1.344265  y =  0.100319  z = -2.214873 angstrom
           Maximum rank =  0   Radius =  0.650 angstrom
                   Q00  =   0.852957

O          x =  0.484265  y =  0.964319  z = -2.387873 angstrom
           Maximum rank =  0   Radius =  0.650 angstrom
                   Q00  =  -0.818626

N          x =  2.601265  y =  0.277319  z = -2.586873 angstrom
           Maximum rank =  0   Radius =  0.650 angstrom
                   Q00  =  -0.533621

H          x =  0.831265  y = -1.038681  z = -0.492873 angstrom
           Maximum rank =  0   Radius =  0.325 angstrom
                   Q00  =   0.128121

H          x =  1.837265  y = -1.896681  z = -1.660873 angstrom
           Maximum rank =  0   Radius =  0.325 angstrom
                   Q00  =   0.035749

H          x = -0.086735  y = -1.929681  z = -3.245873 angstrom
           Maximum rank =  0   Radius =  0.325 angstrom
                   Q00  =   0.075816

H          x = -1.084735  y = -1.156681  z = -2.017873 angstrom
           Maximum rank =  0   Radius =  0.325 angstrom
                   Q00  =   0.110981

H          x =  2.864265  y =  1.150319  z = -3.010873 angstrom
           Maximum rank =  0   Radius =  0.325 angstrom
                   Q00  =   0.214683

H          x =  3.312265  y = -0.413681  z = -2.360873 angstrom
           Maximum rank =  0   Radius =  0.325 angstrom
                   Q00  =   0.207898

H          x = -0.491525  y = -2.812771  z = -1.738823 angstrom
           Maximum rank =  0   Radius =  0.325 angstrom
                   Q00  =   0.082007

Total multipoles referred to origin at
           x =   0.000000,  y =    0.000000,  z =    0.000000 angstrom
                   Q00  =  -0.000000

Finished at 17:24:41 on 26 Apr 2020 

  DMA results are available in the Python driver through the
	  variable('DMA DISTRIBUTED MULTIPOLES')
  and
	  variable('DMA TOTAL MULTIPOLES')
  commands.


    Psi4 stopped on: Sunday, 26 April 2020 05:24PM
    Psi4 wall time for execution: 0:04:51.07

*** Psi4 exiting successfully. Buy a developer a beer!
