
    -----------------------------------------------------------------------
          Psi4: An Open-Source Ab Initio Electronic Structure Package
                               Psi4 1.3.2 release

                         Git: Rev {HEAD} ecbda83 


    R. M. Parrish, L. A. Burns, D. G. A. Smith, A. C. Simmonett,
    A. E. DePrince III, E. G. Hohenstein, U. Bozkaya, A. Yu. Sokolov,
    R. Di Remigio, R. M. Richard, J. F. Gonthier, A. M. James,
    H. R. McAlexander, A. Kumar, M. Saitow, X. Wang, B. P. Pritchard,
    P. Verma, H. F. Schaefer III, K. Patkowski, R. A. King, E. F. Valeev,
    F. A. Evangelista, J. M. Turney, T. D. Crawford, and C. D. Sherrill,
    J. Chem. Theory Comput. 13(7) pp 3185--3197 (2017).
    (doi: 10.1021/acs.jctc.7b00174)


                         Additional Contributions by
    P. Kraus, H. Kruse, M. H. Lechner, M. C. Schieber, R. A. Shaw,
    A. Alenaizan, R. Galvelis, Z. L. Glick, S. Lehtola, and J. P. Misiewicz

    -----------------------------------------------------------------------


    Psi4 started on: Monday, 27 April 2020 12:59PM

    Process ID: 4914
    Host:       ds3
    PSIDATADIR: /theoryfs2/ds/metcalf/miniconda2/envs/tf2gpu/share/psi4
    Memory:     500.0 MiB
    Threads:    1
    
  ==> Input File <==

--------------------------------------------------------------------------
import numpy as np
set {scf_type pk
basis cc-pvdz
d_convergence 10
gdma_switch   0
gdma_limit    0
gdma_origin   [ 0.0,  0.0,  0.0 ]
}
molecule test {
    units Angstrom
    0 1
    --
    0 1
    C               -3.631576801185254     3.340923107736497     4.068616157842423
    C               -0.757576801185254     1.295923107736497     1.503616157842424
    C               -1.979576801185254     1.715923107736496     1.016616157842424
    C               -0.432576801185254     1.561923107736496     2.849616157842424
    C               -2.896576801185254     2.366923107736497     1.857616157842424
    C               -1.349576801185254     2.239923107736496     3.704616157842424
    C               -2.609576801185253     2.634923107736497     3.207616157842423
    O                0.174423198814746     0.693923107736496     0.693616157842423
    H               -0.241576801185254     0.415923107736496    -0.124383842157576
    H               -2.236576801185253     1.541923107736496    -0.017383842157576
    H                0.532423198814746     1.255923107736496     3.227616157842423
    H               -3.858576801185253     2.643923107736497     1.469616157842424
    H               -1.079576801185254     2.448923107736496     4.730616157842424
    H               -3.212576801185254     3.545923107736497     5.055616157842423
    H               -4.474576801185253     2.662923107736497     4.187616157842424
    H               -3.969117801185253     4.276603107736496     3.598966157842424
    C                1.594423198814746     0.819923107736496    -3.318383842157576
    C                0.638423198814746    -1.072076892263504    -1.925383842157577
    C                1.606423198814746    -0.623076892263504    -2.844383842157576
    C                0.695423198814746    -2.382076892263503    -1.439383842157576
    C                2.639423198814746    -1.507076892263504    -3.223383842157576
    C                1.667423198814746    -3.258076892263503    -1.877383842157576
    C                2.686423198814746    -2.831076892263503    -2.730383842157576
    O                1.708423198814746    -4.514076892263504    -1.381383842157576
    H               -0.174576801185254    -0.423076892263504    -1.646383842157576
    H                0.066423198814746    -2.800076892263504    -0.694383842157576
    H                0.615423198814746     1.266923107736496    -3.140383842157576
    H                1.778423198814746     0.830923107736496    -4.391383842157576
    H                3.420423198814746    -1.161076892263504    -3.882383842157576
    H                3.483423198814746    -3.497076892263503    -3.030383842157577
    H                2.446423198814747    -5.021076892263504    -1.735383842157576
    H                2.372588198814747     1.406913107736496    -2.808573842157576

}
e, wfn = energy('scf', return_wfn=True)
gdma(wfn)
dmavals = variable('DMA DISTRIBUTED MULTIPOLES')
charges = np.array(dmavals)
print(charges)
np.save('SSI-034TYR-277TYR-1-dimer.npy', np.array(charges))--------------------------------------------------------------------------

*** tstart() called on ds3
*** at Mon Apr 27 12:59:58 2020

   => Loading Basis Set <=

    Name: CC-PVDZ
    Role: ORBITAL
    Keyword: BASIS
    atoms 1-7, 17-23  entry C          line   138 file /theoryfs2/ds/metcalf/miniconda2/envs/tf2gpu/share/psi4/basis/cc-pvdz.gbs 
    atoms 8, 24       entry O          line   198 file /theoryfs2/ds/metcalf/miniconda2/envs/tf2gpu/share/psi4/basis/cc-pvdz.gbs 
    atoms 9-16, 25-32 entry H          line    22 file /theoryfs2/ds/metcalf/miniconda2/envs/tf2gpu/share/psi4/basis/cc-pvdz.gbs 


         ---------------------------------------------------------
                                   SCF
               by Justin Turney, Rob Parrish, Andy Simmonett
                          and Daniel G. A. Smith
                              RHF Reference
                        1 Threads,    500 MiB Core
         ---------------------------------------------------------

  ==> Geometry <==

    Molecular point group: c1
    Full point group: C1

    Geometry (in Angstrom), charge = 0, multiplicity = 1:

       Center              X                  Y                   Z               Mass       
    ------------   -----------------  -----------------  -----------------  -----------------
         C           -3.631576801185     3.340923107736     4.068616157842    12.000000000000
         C           -0.757576801185     1.295923107736     1.503616157842    12.000000000000
         C           -1.979576801185     1.715923107736     1.016616157842    12.000000000000
         C           -0.432576801185     1.561923107736     2.849616157842    12.000000000000
         C           -2.896576801185     2.366923107736     1.857616157842    12.000000000000
         C           -1.349576801185     2.239923107736     3.704616157842    12.000000000000
         C           -2.609576801185     2.634923107736     3.207616157842    12.000000000000
         O            0.174423198815     0.693923107736     0.693616157842    15.994914619570
         H           -0.241576801185     0.415923107736    -0.124383842158     1.007825032230
         H           -2.236576801185     1.541923107736    -0.017383842158     1.007825032230
         H            0.532423198815     1.255923107736     3.227616157842     1.007825032230
         H           -3.858576801185     2.643923107736     1.469616157842     1.007825032230
         H           -1.079576801185     2.448923107736     4.730616157842     1.007825032230
         H           -3.212576801185     3.545923107736     5.055616157842     1.007825032230
         H           -4.474576801185     2.662923107736     4.187616157842     1.007825032230
         H           -3.969117801185     4.276603107736     3.598966157842     1.007825032230
         C            1.594423198815     0.819923107736    -3.318383842158    12.000000000000
         C            0.638423198815    -1.072076892264    -1.925383842158    12.000000000000
         C            1.606423198815    -0.623076892264    -2.844383842158    12.000000000000
         C            0.695423198815    -2.382076892264    -1.439383842158    12.000000000000
         C            2.639423198815    -1.507076892264    -3.223383842158    12.000000000000
         C            1.667423198815    -3.258076892264    -1.877383842158    12.000000000000
         C            2.686423198815    -2.831076892264    -2.730383842158    12.000000000000
         O            1.708423198815    -4.514076892264    -1.381383842158    15.994914619570
         H           -0.174576801185    -0.423076892264    -1.646383842158     1.007825032230
         H            0.066423198815    -2.800076892264    -0.694383842158     1.007825032230
         H            0.615423198815     1.266923107736    -3.140383842158     1.007825032230
         H            1.778423198815     0.830923107736    -4.391383842158     1.007825032230
         H            3.420423198815    -1.161076892264    -3.882383842158     1.007825032230
         H            3.483423198815    -3.497076892264    -3.030383842158     1.007825032230
         H            2.446423198815    -5.021076892264    -1.735383842158     1.007825032230
         H            2.372588198815     1.406913107736    -2.808573842158     1.007825032230

  Running in c1 symmetry.

  Rotational constants: A =      0.03865  B =      0.00535  C =      0.00499 [cm^-1]
  Rotational constants: A =   1158.54921  B =    160.47568  C =    149.53375 [MHz]
  Nuclear repulsion =  948.975815638922427

  Charge       = 0
  Multiplicity = 1
  Electrons    = 116
  Nalpha       = 58
  Nbeta        = 58

  ==> Algorithm <==

  SCF Algorithm Type is PK.
  DIIS enabled.
  MOM disabled.
  Fractional occupation disabled.
  Guess Type is SAD.
  Energy threshold   = 1.00e-06
  Density threshold  = 1.00e-10
  Integral threshold = 0.00e+00

  ==> Primary Basis <==

  Basis Set: CC-PVDZ
    Blend: CC-PVDZ
    Number of shells: 144
    Number of basis function: 304
    Number of Cartesian functions: 320
    Spherical Harmonics?: true
    Max angular momentum: 2

  ==> Pre-Iterations <==

   -------------------------------------------------------
    Irrep   Nso     Nmo     Nalpha   Nbeta   Ndocc  Nsocc
   -------------------------------------------------------
     A        304     304       0       0       0       0
   -------------------------------------------------------
    Total     304     304      58      58      58       0
   -------------------------------------------------------

  ==> Integral Setup <==

  Using integral reordering PK algorithm.
  Sizing the integral batches needed.
  Building batch lookup table.
   Calculation information:
      Number of atoms:                  32
      Number of AO shells:             144
      Number of primitives:            432
      Number of atomic orbitals:       320
      Number of basis functions:       304

      Integral cutoff                 1.00e-12
      Number of threads:                 1

	Batch   1 pq = [       0,    9405] index = [             0,44231715] size =     44231715
	Batch   2 pq = [    9405,   13301] index = [      44231715,88464951] size =     44233236
	Batch   3 pq = [   13301,   16290] index = [      88464951,132690195] size =     44225244
	Batch   4 pq = [   16290,   18810] index = [     132690195,176917455] size =     44227260
	Batch   5 pq = [   18810,   21030] index = [     176917455,221140965] size =     44223510
	Batch   6 pq = [   21030,   23037] index = [     221140965,265363203] size =     44222238
	Batch   7 pq = [   23037,   24883] index = [     265363203,309594286] size =     44231083
	Batch   8 pq = [   24883,   26601] index = [     309594286,353819901] size =     44225615
	Batch   9 pq = [   26601,   28214] index = [     353819901,398029005] size =     44209104
	Batch  10 pq = [   28214,   29740] index = [     398029005,442248670] size =     44219665
	Batch  11 pq = [   29740,   31191] index = [     442248670,486454836] size =     44206166
	Batch  12 pq = [   31191,   32578] index = [     486454836,530679331] size =     44224495
	Batch  13 pq = [   32578,   33908] index = [     530679331,574893186] size =     44213855
	Batch  14 pq = [   33908,   35188] index = [     574893186,619115266] size =     44222080
	Batch  15 pq = [   35188,   36423] index = [     619115266,663335676] size =     44220410
	Batch  16 pq = [   36423,   37617] index = [     663335676,707538153] size =     44202477
	Batch  17 pq = [   37617,   38775] index = [     707538153,751769700] size =     44231547
	Batch  18 pq = [   38775,   39899] index = [     751769700,795985050] size =     44215350
	Batch  19 pq = [   39899,   40992] index = [     795985050,840192528] size =     44207478
	Batch  20 pq = [   40992,   42057] index = [     840192528,884416653] size =     44224125
	Batch  21 pq = [   42057,   43095] index = [     884416653,928611060] size =     44194407
	Batch  22 pq = [   43095,   44109] index = [     928611060,972823995] size =     44212935
	Batch  23 pq = [   44109,   45100] index = [     972823995,1017027550] size =     44203555
	Batch  24 pq = [   45100,   46070] index = [    1017027550,1061245485] size =     44217935
	Batch  25 pq = [   46070,   46360] index = [    1061245485,1074647980] size =     13402495
  Task number: 98
  Buffer size: 11059200
  Buffer per thread: 2
  We computed 39614760 shell quartets total.
  Whereas there are 54502020 unique shell quartets.

  ==> DiskJK: Disk-Based J/K Matrices <==

    J tasked:                  Yes
    K tasked:                  Yes
    wK tasked:                  No
    Memory [MiB]:              375
    Schwarz Cutoff:          1E-12

    OpenMP threads:              1

  Minimum eigenvalue in the overlap matrix is 3.4150661417E-04.
  Using Symmetric Orthogonalization.

  SCF Guess: Superposition of Atomic Densities via on-the-fly atomic UHF.

  ==> Iterations <==

                        Total Energy        Delta E     RMS |[F,P]|

   @RHF iter SAD:  -687.83240814978240   -6.87832e+02   0.00000e+00 
   @RHF iter   1:  -688.89387538260530   -1.06147e+00   2.39132e-03 DIIS
   @RHF iter   2:  -689.18759503060710   -2.93720e-01   9.88162e-04 DIIS
   @RHF iter   3:  -689.23101475932583   -4.34197e-02   2.37377e-04 DIIS
   @RHF iter   4:  -689.23491053276030   -3.89577e-03   9.59266e-05 DIIS
   @RHF iter   5:  -689.23540286646926   -4.92334e-04   1.71509e-05 DIIS
   @RHF iter   6:  -689.23542883858431   -2.59721e-05   6.20073e-06 DIIS
   @RHF iter   7:  -689.23543200370227   -3.16512e-06   2.01088e-06 DIIS
   @RHF iter   8:  -689.23543245713483   -4.53433e-07   6.89912e-07 DIIS
   @RHF iter   9:  -689.23543251499530   -5.78605e-08   2.65136e-07 DIIS
   @RHF iter  10:  -689.23543252482057   -9.82527e-09   1.14839e-07 DIIS
   @RHF iter  11:  -689.23543252806871   -3.24815e-09   5.50796e-08 DIIS
   @RHF iter  12:  -689.23543252883144   -7.62725e-10   2.66192e-08 DIIS
   @RHF iter  13:  -689.23543252897355   -1.42109e-10   7.84665e-09 DIIS
   @RHF iter  14:  -689.23543252898776   -1.42109e-11   2.53022e-09 DIIS
   @RHF iter  15:  -689.23543252898969   -1.93268e-12   7.92726e-10 DIIS
   @RHF iter  16:  -689.23543252899071   -1.02318e-12   3.24047e-10 DIIS
   @RHF iter  17:  -689.23543252898617    4.54747e-12   1.27014e-10 DIIS
   @RHF iter  18:  -689.23543252898708   -9.09495e-13   5.24867e-11 DIIS
  Energy and wave function converged.


  ==> Post-Iterations <==

    Orbital Energies [Eh]
    ---------------------

    Doubly Occupied:                                                      

       1A    -20.584909     2A    -20.578929     3A    -11.299480  
       4A    -11.296855     5A    -11.250154     6A    -11.246349  
       7A    -11.243045     8A    -11.242050     9A    -11.239969  
      10A    -11.238152    11A    -11.236642    12A    -11.233266  
      13A    -11.233241    14A    -11.232886    15A    -11.231160  
      16A    -11.229156    17A     -1.407524    18A     -1.393324  
      19A     -1.149169    20A     -1.140831    21A     -1.039125  
      22A     -1.035163    23A     -1.019447    24A     -1.007491  
      25A     -0.930008    26A     -0.924586    27A     -0.853493  
      28A     -0.840599    29A     -0.802805    30A     -0.795077  
      31A     -0.742006    32A     -0.723239    33A     -0.666831  
      34A     -0.663320    35A     -0.651624    36A     -0.637355  
      37A     -0.615480    38A     -0.604508    39A     -0.591056  
      40A     -0.589427    41A     -0.581739    42A     -0.578427  
      43A     -0.574343    44A     -0.572088    45A     -0.570828  
      46A     -0.563858    47A     -0.530491    48A     -0.526058  
      49A     -0.503506    50A     -0.494871    51A     -0.487721  
      52A     -0.482514    53A     -0.466884    54A     -0.460253  
      55A     -0.340055    56A     -0.331418    57A     -0.303174  
      58A     -0.299960  

    Virtual:                                                              

      59A      0.120848    60A      0.128017    61A      0.151071  
      62A      0.154673    63A      0.157838    64A      0.177797  
      65A      0.188467    66A      0.200436    67A      0.218050  
      68A      0.219653    69A      0.227287    70A      0.249452  
      71A      0.258257    72A      0.264980    73A      0.270389  
      74A      0.271190    75A      0.278459    76A      0.288455  
      77A      0.292314    78A      0.340808    79A      0.360978  
      80A      0.367888    81A      0.369816    82A      0.380723  
      83A      0.425914    84A      0.436536    85A      0.442107  
      86A      0.461521    87A      0.469916    88A      0.482960  
      89A      0.488366    90A      0.496206    91A      0.498993  
      92A      0.507417    93A      0.607174    94A      0.615753  
      95A      0.627382    96A      0.633168    97A      0.640769  
      98A      0.644404    99A      0.648377   100A      0.665373  
     101A      0.682203   102A      0.691303   103A      0.692164  
     104A      0.695774   105A      0.707213   106A      0.716174  
     107A      0.723263   108A      0.732356   109A      0.734180  
     110A      0.740057   111A      0.740775   112A      0.748345  
     113A      0.766795   114A      0.767560   115A      0.770124  
     116A      0.777464   117A      0.782978   118A      0.786810  
     119A      0.789788   120A      0.802283   121A      0.823120  
     122A      0.840082   123A      0.843499   124A      0.844383  
     125A      0.856462   126A      0.868015   127A      0.879127  
     128A      0.881623   129A      0.884276   130A      0.888622  
     131A      0.890520   132A      0.897778   133A      0.900178  
     134A      0.905805   135A      0.924171   136A      0.930446  
     137A      0.935368   138A      0.941312   139A      0.942668  
     140A      0.944386   141A      0.962548   142A      0.994592  
     143A      1.001145   144A      1.017982   145A      1.026075  
     146A      1.043849   147A      1.058849   148A      1.087489  
     149A      1.113480   150A      1.115314   151A      1.138751  
     152A      1.139760   153A      1.145662   154A      1.149924  
     155A      1.158080   156A      1.169340   157A      1.195746  
     158A      1.204098   159A      1.213527   160A      1.226779  
     161A      1.238926   162A      1.241267   163A      1.246443  
     164A      1.273063   165A      1.276545   166A      1.278906  
     167A      1.285429   168A      1.296027   169A      1.305132  
     170A      1.311238   171A      1.314997   172A      1.321655  
     173A      1.354389   174A      1.363217   175A      1.381405  
     176A      1.382474   177A      1.396282   178A      1.417054  
     179A      1.471491   180A      1.500742   181A      1.508390  
     182A      1.518160   183A      1.519642   184A      1.548764  
     185A      1.563027   186A      1.588035   187A      1.613214  
     188A      1.618520   189A      1.625376   190A      1.649414  
     191A      1.673173   192A      1.675361   193A      1.686922  
     194A      1.695741   195A      1.714884   196A      1.722368  
     197A      1.731639   198A      1.739160   199A      1.774158  
     200A      1.784593   201A      1.789115   202A      1.801495  
     203A      1.804911   204A      1.806764   205A      1.847400  
     206A      1.863695   207A      1.870067   208A      1.880599  
     209A      1.886310   210A      1.891652   211A      1.895130  
     212A      1.900227   213A      1.906022   214A      1.913213  
     215A      1.918318   216A      1.923667   217A      1.939180  
     218A      1.943989   219A      1.947048   220A      1.951695  
     221A      1.961044   222A      1.972916   223A      1.989785  
     224A      1.993648   225A      2.013228   226A      2.017717  
     227A      2.026169   228A      2.040593   229A      2.047916  
     230A      2.056026   231A      2.062030   232A      2.070179  
     233A      2.076772   234A      2.084644   235A      2.108131  
     236A      2.126491   237A      2.140363   238A      2.154810  
     239A      2.163151   240A      2.178303   241A      2.188168  
     242A      2.198709   243A      2.220036   244A      2.226332  
     245A      2.245054   246A      2.250966   247A      2.265243  
     248A      2.278834   249A      2.297254   250A      2.299230  
     251A      2.333430   252A      2.358437   253A      2.366344  
     254A      2.370264   255A      2.384835   256A      2.392575  
     257A      2.442875   258A      2.464353   259A      2.468361  
     260A      2.484135   261A      2.491698   262A      2.508909  
     263A      2.520088   264A      2.531397   265A      2.535452  
     266A      2.583996   267A      2.609398   268A      2.620878  
     269A      2.641431   270A      2.647656   271A      2.732676  
     272A      2.742007   273A      2.766390   274A      2.768813  
     275A      2.777540   276A      2.779426   277A      2.808906  
     278A      2.827925   279A      2.834080   280A      2.837012  
     281A      2.875192   282A      2.881525   283A      2.924044  
     284A      2.951018   285A      2.999271   286A      3.016312  
     287A      3.057726   288A      3.062069   289A      3.088807  
     290A      3.098530   291A      3.248977   292A      3.265290  
     293A      3.272665   294A      3.285261   295A      3.351149  
     296A      3.354173   297A      3.565362   298A      3.579977  
     299A      3.663484   300A      3.683223   301A      3.933690  
     302A      3.961484   303A      4.185478   304A      4.214297  

    Final Occupation by Irrep:
              A 
    DOCC [    58 ]

  @RHF Final Energy:  -689.23543252898708

   => Energetics <=

    Nuclear Repulsion Energy =            948.9758156389224268
    One-Electron Energy =               -2820.2066566896992299
    Two-Electron Energy =                1181.9954085217896136
    Total Energy =                       -689.2354325289870758

Computation Completed


Properties will be evaluated at   0.000000,   0.000000,   0.000000 [a0]

Properties computed using the SCF density matrix

  Nuclear Dipole Moment: [e a0]
     X:    -4.2392      Y:     8.7886      Z:     0.7458

  Electronic Dipole Moment: [e a0]
     X:     4.3103      Y:    -8.8263      Z:    -1.3615

  Dipole Moment: [e a0]
     X:     0.0711      Y:    -0.0376      Z:    -0.6158     Total:     0.6210

  Dipole Moment: [D]
     X:     0.1808      Y:    -0.0957      Z:    -1.5652     Total:     1.5785


*** tstop() called on ds3 at Mon Apr 27 13:12:16 2020
Module time:
	user time   =     411.77 seconds =       6.86 minutes
	system time =     194.90 seconds =       3.25 minutes
	total time  =        738 seconds =      12.30 minutes
Total time:
	user time   =     411.77 seconds =       6.86 minutes
	system time =     194.90 seconds =       3.25 minutes
	total time  =        738 seconds =      12.30 minutes
                                     G D M A

                                 by Anthony Stone

                           version 2.2.06, 22 June 2011

               Distributed Multipoles from Gaussian wavefunctions


Starting at 13:12:16 on 27 Apr 2020 


Using SCF density matrix from file ./SSI/SSI-034TYR-277TYR-1-dimer.test.4914.fchk


                         Distributed Multipole Analysis

Standard DMA

Positions and radii in angstrom
Multipole moments in atomic units, ea_0^k for rank k

C          x = -3.631577  y =  3.340923  z =  4.068616 angstrom
           Maximum rank =  0   Radius =  0.650 angstrom
                   Q00  =  -0.198270

C          x = -0.757577  y =  1.295923  z =  1.503616 angstrom
           Maximum rank =  0   Radius =  0.650 angstrom
                   Q00  =   0.302984

C          x = -1.979577  y =  1.715923  z =  1.016616 angstrom
           Maximum rank =  0   Radius =  0.650 angstrom
                   Q00  =  -0.184874

C          x = -0.432577  y =  1.561923  z =  2.849616 angstrom
           Maximum rank =  0   Radius =  0.650 angstrom
                   Q00  =  -0.104579

C          x = -2.896577  y =  2.366923  z =  1.857616 angstrom
           Maximum rank =  0   Radius =  0.650 angstrom
                   Q00  =   0.045854

C          x = -1.349577  y =  2.239923  z =  3.704616 angstrom
           Maximum rank =  0   Radius =  0.650 angstrom
                   Q00  =  -0.048453

C          x = -2.609577  y =  2.634923  z =  3.207616 angstrom
           Maximum rank =  0   Radius =  0.650 angstrom
                   Q00  =  -0.135195

O          x =  0.174423  y =  0.693923  z =  0.693616 angstrom
           Maximum rank =  0   Radius =  0.650 angstrom
                   Q00  =  -0.682782

H          x = -0.241577  y =  0.415923  z = -0.124384 angstrom
           Maximum rank =  0   Radius =  0.325 angstrom
                   Q00  =   0.420518

H          x = -2.236577  y =  1.541923  z = -0.017384 angstrom
           Maximum rank =  0   Radius =  0.325 angstrom
                   Q00  =   0.070072

H          x =  0.532423  y =  1.255923  z =  3.227616 angstrom
           Maximum rank =  0   Radius =  0.325 angstrom
                   Q00  =   0.082702

H          x = -3.858577  y =  2.643923  z =  1.469616 angstrom
           Maximum rank =  0   Radius =  0.325 angstrom
                   Q00  =   0.066061

H          x = -1.079577  y =  2.448923  z =  4.730616 angstrom
           Maximum rank =  0   Radius =  0.325 angstrom
                   Q00  =   0.070234

H          x = -3.212577  y =  3.545923  z =  5.055616 angstrom
           Maximum rank =  0   Radius =  0.325 angstrom
                   Q00  =   0.099290

H          x = -4.474577  y =  2.662923  z =  4.187616 angstrom
           Maximum rank =  0   Radius =  0.325 angstrom
                   Q00  =   0.099599

H          x = -3.969118  y =  4.276603  z =  3.598966 angstrom
           Maximum rank =  0   Radius =  0.325 angstrom
                   Q00  =   0.099615

C          x =  1.594423  y =  0.819923  z = -3.318384 angstrom
           Maximum rank =  0   Radius =  0.650 angstrom
                   Q00  =  -0.190234

C          x =  0.638423  y = -1.072077  z = -1.925384 angstrom
           Maximum rank =  0   Radius =  0.650 angstrom
                   Q00  =  -0.067299

C          x =  1.606423  y = -0.623077  z = -2.844384 angstrom
           Maximum rank =  0   Radius =  0.650 angstrom
                   Q00  =  -0.139212

C          x =  0.695423  y = -2.382077  z = -1.439384 angstrom
           Maximum rank =  0   Radius =  0.650 angstrom
                   Q00  =  -0.020968

C          x =  2.639423  y = -1.507077  z = -3.223384 angstrom
           Maximum rank =  0   Radius =  0.650 angstrom
                   Q00  =  -0.068544

C          x =  1.667423  y = -3.258077  z = -1.877384 angstrom
           Maximum rank =  0   Radius =  0.650 angstrom
                   Q00  =   0.360293

C          x =  2.686423  y = -2.831077  z = -2.730384 angstrom
           Maximum rank =  0   Radius =  0.650 angstrom
                   Q00  =  -0.184170

O          x =  1.708423  y = -4.514077  z = -1.381384 angstrom
           Maximum rank =  0   Radius =  0.650 angstrom
                   Q00  =  -0.670488

H          x = -0.174577  y = -0.423077  z = -1.646384 angstrom
           Maximum rank =  0   Radius =  0.325 angstrom
                   Q00  =   0.037292

H          x =  0.066423  y = -2.800077  z = -0.694384 angstrom
           Maximum rank =  0   Radius =  0.325 angstrom
                   Q00  =   0.086708

H          x =  0.615423  y =  1.266923  z = -3.140384 angstrom
           Maximum rank =  0   Radius =  0.325 angstrom
                   Q00  =   0.093344

H          x =  1.778423  y =  0.830923  z = -4.391384 angstrom
           Maximum rank =  0   Radius =  0.325 angstrom
                   Q00  =   0.097755

H          x =  3.420423  y = -1.161077  z = -3.882384 angstrom
           Maximum rank =  0   Radius =  0.325 angstrom
                   Q00  =   0.070976

H          x =  3.483423  y = -3.497077  z = -3.030384 angstrom
           Maximum rank =  0   Radius =  0.325 angstrom
                   Q00  =   0.076346

H          x =  2.446423  y = -5.021077  z = -1.735384 angstrom
           Maximum rank =  0   Radius =  0.325 angstrom
                   Q00  =   0.408112

H          x =  2.372588  y =  1.406913  z = -2.808574 angstrom
           Maximum rank =  0   Radius =  0.325 angstrom
                   Q00  =   0.107313

Total multipoles referred to origin at
           x =   0.000000,  y =    0.000000,  z =    0.000000 angstrom
                   Q00  =  -0.000000

Finished at 13:12:16 on 27 Apr 2020 

  DMA results are available in the Python driver through the
	  variable('DMA DISTRIBUTED MULTIPOLES')
  and
	  variable('DMA TOTAL MULTIPOLES')
  commands.


    Psi4 stopped on: Monday, 27 April 2020 01:12PM
    Psi4 wall time for execution: 0:12:18.25

*** Psi4 exiting successfully. Buy a developer a beer!
