
    -----------------------------------------------------------------------
          Psi4: An Open-Source Ab Initio Electronic Structure Package
                               Psi4 1.3.2 release

                         Git: Rev {HEAD} ecbda83 


    R. M. Parrish, L. A. Burns, D. G. A. Smith, A. C. Simmonett,
    A. E. DePrince III, E. G. Hohenstein, U. Bozkaya, A. Yu. Sokolov,
    R. Di Remigio, R. M. Richard, J. F. Gonthier, A. M. James,
    H. R. McAlexander, A. Kumar, M. Saitow, X. Wang, B. P. Pritchard,
    P. Verma, H. F. Schaefer III, K. Patkowski, R. A. King, E. F. Valeev,
    F. A. Evangelista, J. M. Turney, T. D. Crawford, and C. D. Sherrill,
    J. Chem. Theory Comput. 13(7) pp 3185--3197 (2017).
    (doi: 10.1021/acs.jctc.7b00174)


                         Additional Contributions by
    P. Kraus, H. Kruse, M. H. Lechner, M. C. Schieber, R. A. Shaw,
    A. Alenaizan, R. Galvelis, Z. L. Glick, S. Lehtola, and J. P. Misiewicz

    -----------------------------------------------------------------------


    Psi4 started on: Monday, 27 April 2020 12:54PM

    Process ID: 4619
    Host:       ds3
    PSIDATADIR: /theoryfs2/ds/metcalf/miniconda2/envs/tf2gpu/share/psi4
    Memory:     500.0 MiB
    Threads:    1
    
  ==> Input File <==

--------------------------------------------------------------------------
import numpy as np
set {scf_type pk
basis cc-pvdz
d_convergence 10
gdma_switch   0
gdma_limit    0
gdma_origin   [ 0.0,  0.0,  0.0 ]
}
molecule test {
    units Angstrom
    -1 1
    --
    -1 1
    C                3.405562257770332     1.716926334199501     0.257564206978576
    C                2.450562257770332     0.572926334199501    -0.059435793021424
    O                2.515562257770332    -0.514073665800499     0.557564206978576
    O                1.567562257770332     0.786926334199501    -0.914435793021424
    H                2.861562257770332     2.663926334199501     0.259564206978576
    H                4.138562257770332     1.791926334199501    -0.546435793021424
    H                3.921972257770332     1.603776334199501     1.222204206978576
    C               -0.878437742229668     0.167926334199501     1.624564206978576
    C               -0.893437742229668     1.700926334199501     1.520564206978576
    C               -1.411437742229668    -0.514073665800499     0.394564206978576
    C               -2.624437742229668    -1.095073665800499     0.183564206978576
    C               -1.486437742229668    -1.144073665800499    -1.712435793021424
    N               -0.716437742229668    -0.559073665800499    -0.797435793021424
    N               -2.629437742229668    -1.490073665800499    -1.138435793021424
    H                0.137562257770332    -0.172073665800499     1.816564206978576
    H               -1.494437742229668    -0.138073665800499     2.471564206978576
    H               -0.155437742229668     2.008926334199501     0.779564206978576
    H               -3.424437742229668    -1.202073665800499     0.905564206978576
    H               -1.217437742229668    -1.333073665800499    -2.746435793021424
    H               -3.379437742229668    -2.001073665800499    -1.605435793021424
    H               -0.690889742229668     2.143666334199501     2.506944206978576
    H               -1.888179742229668     2.040486334199501     1.196244206978576

}
e, wfn = energy('scf', return_wfn=True)
gdma(wfn)
dmavals = variable('DMA DISTRIBUTED MULTIPOLES')
charges = np.array(dmavals)
print(charges)
np.save('SSI-026GLU-042HIE-1-dimer.npy', np.array(charges))--------------------------------------------------------------------------

*** tstart() called on ds3
*** at Mon Apr 27 12:54:41 2020

   => Loading Basis Set <=

    Name: CC-PVDZ
    Role: ORBITAL
    Keyword: BASIS
    atoms 1-2, 8-12  entry C          line   138 file /theoryfs2/ds/metcalf/miniconda2/envs/tf2gpu/share/psi4/basis/cc-pvdz.gbs 
    atoms 3-4        entry O          line   198 file /theoryfs2/ds/metcalf/miniconda2/envs/tf2gpu/share/psi4/basis/cc-pvdz.gbs 
    atoms 5-7, 15-22 entry H          line    22 file /theoryfs2/ds/metcalf/miniconda2/envs/tf2gpu/share/psi4/basis/cc-pvdz.gbs 
    atoms 13-14      entry N          line   168 file /theoryfs2/ds/metcalf/miniconda2/envs/tf2gpu/share/psi4/basis/cc-pvdz.gbs 


         ---------------------------------------------------------
                                   SCF
               by Justin Turney, Rob Parrish, Andy Simmonett
                          and Daniel G. A. Smith
                              RHF Reference
                        1 Threads,    500 MiB Core
         ---------------------------------------------------------

  ==> Geometry <==

    Molecular point group: c1
    Full point group: C1

    Geometry (in Angstrom), charge = -1, multiplicity = 1:

       Center              X                  Y                   Z               Mass       
    ------------   -----------------  -----------------  -----------------  -----------------
         C            3.405562257770     1.716926334200     0.257564206979    12.000000000000
         C            2.450562257770     0.572926334200    -0.059435793021    12.000000000000
         O            2.515562257770    -0.514073665800     0.557564206979    15.994914619570
         O            1.567562257770     0.786926334200    -0.914435793021    15.994914619570
         H            2.861562257770     2.663926334200     0.259564206979     1.007825032230
         H            4.138562257770     1.791926334200    -0.546435793021     1.007825032230
         H            3.921972257770     1.603776334200     1.222204206979     1.007825032230
         C           -0.878437742230     0.167926334200     1.624564206979    12.000000000000
         C           -0.893437742230     1.700926334200     1.520564206979    12.000000000000
         C           -1.411437742230    -0.514073665800     0.394564206979    12.000000000000
         C           -2.624437742230    -1.095073665800     0.183564206979    12.000000000000
         C           -1.486437742230    -1.144073665800    -1.712435793021    12.000000000000
         N           -0.716437742230    -0.559073665800    -0.797435793021    14.003074004430
         N           -2.629437742230    -1.490073665800    -1.138435793021    14.003074004430
         H            0.137562257770    -0.172073665800     1.816564206979     1.007825032230
         H           -1.494437742230    -0.138073665800     2.471564206979     1.007825032230
         H           -0.155437742230     2.008926334200     0.779564206979     1.007825032230
         H           -3.424437742230    -1.202073665800     0.905564206979     1.007825032230
         H           -1.217437742230    -1.333073665800    -2.746435793021     1.007825032230
         H           -3.379437742230    -2.001073665800    -1.605435793021     1.007825032230
         H           -0.690889742230     2.143666334200     2.506944206979     1.007825032230
         H           -1.888179742230     2.040486334200     1.196244206979     1.007825032230

  Running in c1 symmetry.

  Rotational constants: A =      0.06200  B =      0.02016  C =      0.01719 [cm^-1]
  Rotational constants: A =   1858.75930  B =    604.43272  C =    515.47645 [MHz]
  Nuclear repulsion =  597.770498172521116

  Charge       = -1
  Multiplicity = 1
  Electrons    = 84
  Nalpha       = 42
  Nbeta        = 42

  ==> Algorithm <==

  SCF Algorithm Type is PK.
  DIIS enabled.
  MOM disabled.
  Fractional occupation disabled.
  Guess Type is SAD.
  Energy threshold   = 1.00e-06
  Density threshold  = 1.00e-10
  Integral threshold = 0.00e+00

  ==> Primary Basis <==

  Basis Set: CC-PVDZ
    Blend: CC-PVDZ
    Number of shells: 99
    Number of basis function: 209
    Number of Cartesian functions: 220
    Spherical Harmonics?: true
    Max angular momentum: 2

  ==> Pre-Iterations <==

   -------------------------------------------------------
    Irrep   Nso     Nmo     Nalpha   Nbeta   Ndocc  Nsocc
   -------------------------------------------------------
     A        209     209       0       0       0       0
   -------------------------------------------------------
    Total     209     209      42      42      42       0
   -------------------------------------------------------

  ==> Integral Setup <==

  Using integral reordering PK algorithm.
  Sizing the integral batches needed.
  Building batch lookup table.
   Calculation information:
      Number of atoms:                  22
      Number of AO shells:              99
      Number of primitives:            297
      Number of atomic orbitals:       220
      Number of basis functions:       209

      Integral cutoff                 1.00e-12
      Number of threads:                 1

	Batch   1 pq = [       0,    9405] index = [             0,44231715] size =     44231715
	Batch   2 pq = [    9405,   13301] index = [      44231715,88464951] size =     44233236
	Batch   3 pq = [   13301,   16290] index = [      88464951,132690195] size =     44225244
	Batch   4 pq = [   16290,   18810] index = [     132690195,176917455] size =     44227260
	Batch   5 pq = [   18810,   21030] index = [     176917455,221140965] size =     44223510
	Batch   6 pq = [   21030,   21945] index = [     221140965,240802485] size =     19661520
  Task number: 22
  Buffer size: 11059200
  Buffer per thread: 2
  We computed 11012579 shell quartets total.
  Whereas there are 12253725 unique shell quartets.

  ==> DiskJK: Disk-Based J/K Matrices <==

    J tasked:                  Yes
    K tasked:                  Yes
    wK tasked:                  No
    Memory [MiB]:              375
    Schwarz Cutoff:          1E-12

    OpenMP threads:              1

  Minimum eigenvalue in the overlap matrix is 1.1597074024E-03.
  Using Symmetric Orthogonalization.

  SCF Guess: Superposition of Atomic Densities via on-the-fly atomic UHF.

  ==> Iterations <==

                        Total Energy        Delta E     RMS |[F,P]|

   @RHF iter SAD:  -528.67996185111042   -5.28680e+02   0.00000e+00 
   @RHF iter   1:  -529.72760117595180   -1.04764e+00   4.08511e-03 DIIS
   @RHF iter   2:  -529.99907167895401   -2.71471e-01   2.55697e-03 DIIS
   @RHF iter   3:  -530.11298090092851   -1.13909e-01   4.43285e-04 DIIS
   @RHF iter   4:  -530.11811864257731   -5.13774e-03   1.87588e-04 DIIS
   @RHF iter   5:  -530.11905959092132   -9.40948e-04   3.91616e-05 DIIS
   @RHF iter   6:  -530.11911053157462   -5.09407e-05   1.68099e-05 DIIS
   @RHF iter   7:  -530.11912042646225   -9.89489e-06   4.85687e-06 DIIS
   @RHF iter   8:  -530.11912179744672   -1.37098e-06   2.07580e-06 DIIS
   @RHF iter   9:  -530.11912206996294   -2.72516e-07   9.04282e-07 DIIS
   @RHF iter  10:  -530.11912212856237   -5.85994e-08   3.05920e-07 DIIS
   @RHF iter  11:  -530.11912213535061   -6.78824e-09   1.35498e-07 DIIS
   @RHF iter  12:  -530.11912213646690   -1.11629e-09   5.22001e-08 DIIS
   @RHF iter  13:  -530.11912213665676   -1.89857e-10   1.59282e-08 DIIS
   @RHF iter  14:  -530.11912213667324   -1.64846e-11   5.09766e-09 DIIS
   @RHF iter  15:  -530.11912213667392   -6.82121e-13   1.95981e-09 DIIS
   @RHF iter  16:  -530.11912213667483   -9.09495e-13   8.04233e-10 DIIS
   @RHF iter  17:  -530.11912213667517   -3.41061e-13   3.20828e-10 DIIS
   @RHF iter  18:  -530.11912213667290    2.27374e-12   1.19538e-10 DIIS
   @RHF iter  19:  -530.11912213666881    4.09273e-12   4.16753e-11 DIIS
  Energy and wave function converged.


  ==> Post-Iterations <==

    Orbital Energies [Eh]
    ---------------------

    Doubly Occupied:                                                      

       1A    -20.245276     2A    -20.237320     3A    -15.498392  
       4A    -15.384770     5A    -11.160566     6A    -11.127122  
       7A    -11.109935     8A    -11.100668     9A    -11.087541  
      10A    -11.084098    11A    -11.043867    12A     -1.213654  
      13A     -1.134849    14A     -1.020246    15A     -1.016958  
      16A     -0.916368    17A     -0.855838    18A     -0.788288  
      19A     -0.726558    20A     -0.688712    21A     -0.631335  
      22A     -0.605902    23A     -0.492176    24A     -0.486824  
      25A     -0.477976    26A     -0.476345    27A     -0.448922  
      28A     -0.430954    29A     -0.401691    30A     -0.396324  
      31A     -0.389550    32A     -0.378236    33A     -0.357891  
      34A     -0.346643    35A     -0.328490    36A     -0.290971  
      37A     -0.258423    38A     -0.238311    39A     -0.184578  
      40A     -0.164838    41A     -0.150003    42A     -0.141185  

    Virtual:                                                              

      43A      0.274614    44A      0.305894    45A      0.312240  
      46A      0.333820    47A      0.338911    48A      0.358171  
      49A      0.375415    50A      0.380240    51A      0.396166  
      52A      0.403288    53A      0.416487    54A      0.442199  
      55A      0.475801    56A      0.497495    57A      0.500817  
      58A      0.516212    59A      0.542657    60A      0.568935  
      61A      0.584557    62A      0.605615    63A      0.610918  
      64A      0.702666    65A      0.726088    66A      0.731707  
      67A      0.752375    68A      0.772879    69A      0.776302  
      70A      0.797108    71A      0.814119    72A      0.828303  
      73A      0.833950    74A      0.856028    75A      0.885180  
      76A      0.890379    77A      0.897396    78A      0.941483  
      79A      0.946145    80A      0.978344    81A      0.982142  
      82A      0.999078    83A      1.017401    84A      1.018994  
      85A      1.034250    86A      1.039225    87A      1.041823  
      88A      1.048101    89A      1.058096    90A      1.070658  
      91A      1.078193    92A      1.084131    93A      1.099277  
      94A      1.115274    95A      1.120287    96A      1.125768  
      97A      1.154490    98A      1.166121    99A      1.201708  
     100A      1.218899   101A      1.246157   102A      1.252474  
     103A      1.266658   104A      1.282864   105A      1.338699  
     106A      1.354449   107A      1.369857   108A      1.387553  
     109A      1.392394   110A      1.430368   111A      1.434930  
     112A      1.454844   113A      1.476194   114A      1.528708  
     115A      1.547161   116A      1.559320   117A      1.562091  
     118A      1.585886   119A      1.595073   120A      1.630299  
     121A      1.634631   122A      1.656937   123A      1.678370  
     124A      1.695790   125A      1.709264   126A      1.740538  
     127A      1.765431   128A      1.792548   129A      1.821668  
     130A      1.842554   131A      1.855902   132A      1.861393  
     133A      1.868847   134A      1.880317   135A      1.918011  
     136A      1.952721   137A      1.990580   138A      2.011442  
     139A      2.019420   140A      2.051852   141A      2.058263  
     142A      2.062208   143A      2.072290   144A      2.077502  
     145A      2.092399   146A      2.107445   147A      2.117645  
     148A      2.126296   149A      2.131526   150A      2.148911  
     151A      2.159139   152A      2.170250   153A      2.192640  
     154A      2.229868   155A      2.230852   156A      2.255434  
     157A      2.264324   158A      2.283539   159A      2.298164  
     160A      2.351056   161A      2.374992   162A      2.384943  
     163A      2.409994   164A      2.435127   165A      2.444962  
     166A      2.451272   167A      2.498754   168A      2.532019  
     169A      2.559690   170A      2.577738   171A      2.598883  
     172A      2.623373   173A      2.640555   174A      2.679387  
     175A      2.700719   176A      2.726919   177A      2.733477  
     178A      2.743612   179A      2.813764   180A      2.822721  
     181A      2.869061   182A      2.895417   183A      2.912419  
     184A      2.922726   185A      2.937038   186A      2.964923  
     187A      2.979354   188A      2.985768   189A      3.002003  
     190A      3.034526   191A      3.038493   192A      3.070904  
     193A      3.080120   194A      3.153678   195A      3.207907  
     196A      3.262609   197A      3.298973   198A      3.302498  
     199A      3.322785   200A      3.389805   201A      3.407181  
     202A      3.611910   203A      3.664394   204A      3.799693  
     205A      3.841349   206A      3.909481   207A      4.088067  
     208A      4.112149   209A      4.234747  

    Final Occupation by Irrep:
              A 
    DOCC [    42 ]

  @RHF Final Energy:  -530.11912213666881

   => Energetics <=

    Nuclear Repulsion Energy =            597.7704981725211155
    One-Electron Energy =               -1924.7420388308557904
    Two-Electron Energy =                 796.8524185216657543
    Total Energy =                       -530.1191221366688069

Computation Completed


Properties will be evaluated at   0.000000,   0.000000,   0.000000 [a0]

Properties computed using the SCF density matrix

  Nuclear Dipole Moment: [e a0]
     X:    -1.0868      Y:     6.9505      Z:     5.8724

  Electronic Dipole Moment: [e a0]
     X:    -2.8714      Y:    -7.5122      Z:    -6.0487

  Dipole Moment: [e a0]
     X:    -3.9582      Y:    -0.5618      Z:    -0.1763     Total:     4.0017

  Dipole Moment: [D]
     X:   -10.0607      Y:    -1.4279      Z:    -0.4481     Total:    10.1714


*** tstop() called on ds3 at Mon Apr 27 12:57:08 2020
Module time:
	user time   =     105.55 seconds =       1.76 minutes
	system time =      48.69 seconds =       0.81 minutes
	total time  =        147 seconds =       2.45 minutes
Total time:
	user time   =     105.55 seconds =       1.76 minutes
	system time =      48.69 seconds =       0.81 minutes
	total time  =        147 seconds =       2.45 minutes
                                     G D M A

                                 by Anthony Stone

                           version 2.2.06, 22 June 2011

               Distributed Multipoles from Gaussian wavefunctions


Starting at 12:57:8 on 27 Apr 2020  


Using SCF density matrix from file ./SSI/SSI-026GLU-042HIE-1-dimer.test.4619.fchk


                         Distributed Multipole Analysis

Standard DMA

Positions and radii in angstrom
Multipole moments in atomic units, ea_0^k for rank k

C          x =  3.405562  y =  1.716926  z =  0.257564 angstrom
           Maximum rank =  0   Radius =  0.650 angstrom
                   Q00  =  -0.275006

C          x =  2.450562  y =  0.572926  z = -0.059436 angstrom
           Maximum rank =  0   Radius =  0.650 angstrom
                   Q00  =   0.950501

O          x =  2.515562  y = -0.514074  z =  0.557564 angstrom
           Maximum rank =  0   Radius =  0.650 angstrom
                   Q00  =  -0.935010

O          x =  1.567562  y =  0.786926  z = -0.914436 angstrom
           Maximum rank =  0   Radius =  0.650 angstrom
                   Q00  =  -0.887503

H          x =  2.861562  y =  2.663926  z =  0.259564 angstrom
           Maximum rank =  0   Radius =  0.325 angstrom
                   Q00  =   0.061589

H          x =  4.138562  y =  1.791926  z = -0.546436 angstrom
           Maximum rank =  0   Radius =  0.325 angstrom
                   Q00  =   0.073817

H          x =  3.921972  y =  1.603776  z =  1.222204 angstrom
           Maximum rank =  0   Radius =  0.325 angstrom
                   Q00  =   0.040643

C          x = -0.878438  y =  0.167926  z =  1.624564 angstrom
           Maximum rank =  0   Radius =  0.650 angstrom
                   Q00  =  -0.009793

C          x = -0.893438  y =  1.700926  z =  1.520564 angstrom
           Maximum rank =  0   Radius =  0.650 angstrom
                   Q00  =  -0.213931

C          x = -1.411438  y = -0.514074  z =  0.394564 angstrom
           Maximum rank =  0   Radius =  0.650 angstrom
                   Q00  =   0.284001

C          x = -2.624438  y = -1.095074  z =  0.183564 angstrom
           Maximum rank =  0   Radius =  0.650 angstrom
                   Q00  =  -0.054462

C          x = -1.486438  y = -1.144074  z = -1.712436 angstrom
           Maximum rank =  0   Radius =  0.650 angstrom
                   Q00  =   0.421458

N          x = -0.716438  y = -0.559074  z = -0.797436 angstrom
           Maximum rank =  0   Radius =  0.650 angstrom
                   Q00  =  -0.715026

N          x = -2.629438  y = -1.490074  z = -1.138436 angstrom
           Maximum rank =  0   Radius =  0.650 angstrom
                   Q00  =  -0.441176

H          x =  0.137562  y = -0.172074  z =  1.816564 angstrom
           Maximum rank =  0   Radius =  0.325 angstrom
                   Q00  =   0.123903

H          x = -1.494438  y = -0.138074  z =  2.471564 angstrom
           Maximum rank =  0   Radius =  0.325 angstrom
                   Q00  =   0.003377

H          x = -0.155438  y =  2.008926  z =  0.779564 angstrom
           Maximum rank =  0   Radius =  0.325 angstrom
                   Q00  =   0.120444

H          x = -3.424438  y = -1.202074  z =  0.905564 angstrom
           Maximum rank =  0   Radius =  0.325 angstrom
                   Q00  =   0.082511

H          x = -1.217438  y = -1.333074  z = -2.746436 angstrom
           Maximum rank =  0   Radius =  0.325 angstrom
                   Q00  =   0.105221

H          x = -3.379438  y = -2.001074  z = -1.605436 angstrom
           Maximum rank =  0   Radius =  0.325 angstrom
                   Q00  =   0.179071

H          x = -0.690890  y =  2.143666  z =  2.506944 angstrom
           Maximum rank =  0   Radius =  0.325 angstrom
                   Q00  =   0.045882

H          x = -1.888180  y =  2.040486  z =  1.196244 angstrom
           Maximum rank =  0   Radius =  0.325 angstrom
                   Q00  =   0.039489

Total multipoles referred to origin at
           x =   0.000000,  y =    0.000000,  z =    0.000000 angstrom
                   Q00  =  -1.000000

Finished at 12:57:8 on 27 Apr 2020  

  DMA results are available in the Python driver through the
	  variable('DMA DISTRIBUTED MULTIPOLES')
  and
	  variable('DMA TOTAL MULTIPOLES')
  commands.


    Psi4 stopped on: Monday, 27 April 2020 12:57PM
    Psi4 wall time for execution: 0:02:27.38

*** Psi4 exiting successfully. Buy a developer a beer!
