
    -----------------------------------------------------------------------
          Psi4: An Open-Source Ab Initio Electronic Structure Package
                               Psi4 1.3.2 release

                         Git: Rev {HEAD} ecbda83 


    R. M. Parrish, L. A. Burns, D. G. A. Smith, A. C. Simmonett,
    A. E. DePrince III, E. G. Hohenstein, U. Bozkaya, A. Yu. Sokolov,
    R. Di Remigio, R. M. Richard, J. F. Gonthier, A. M. James,
    H. R. McAlexander, A. Kumar, M. Saitow, X. Wang, B. P. Pritchard,
    P. Verma, H. F. Schaefer III, K. Patkowski, R. A. King, E. F. Valeev,
    F. A. Evangelista, J. M. Turney, T. D. Crawford, and C. D. Sherrill,
    J. Chem. Theory Comput. 13(7) pp 3185--3197 (2017).
    (doi: 10.1021/acs.jctc.7b00174)


                         Additional Contributions by
    P. Kraus, H. Kruse, M. H. Lechner, M. C. Schieber, R. A. Shaw,
    A. Alenaizan, R. Galvelis, Z. L. Glick, S. Lehtola, and J. P. Misiewicz

    -----------------------------------------------------------------------


    Psi4 started on: Monday, 27 April 2020 12:56PM

    Process ID: 4694
    Host:       ds3
    PSIDATADIR: /theoryfs2/ds/metcalf/miniconda2/envs/tf2gpu/share/psi4
    Memory:     500.0 MiB
    Threads:    1
    
  ==> Input File <==

--------------------------------------------------------------------------
import numpy as np
set {scf_type pk
basis cc-pvdz
d_convergence 10
gdma_switch   0
gdma_limit    0
gdma_origin   [ 0.0,  0.0,  0.0 ]
}
molecule test {
    units Angstrom
    0 1
    --
    0 1
    C                0.252667486936911    -1.708875708128898     2.254424004645692
    C                0.591667486936911     0.107124291871102     0.409424004645691
    C                1.073667486936911    -0.882875708128898     1.329424004645691
    C                1.716667486936911     0.634124291871102    -0.271575995354309
    C                2.423667486936912    -0.923875708128898     1.178424004645691
    C               -0.677332513063089     0.605124291871102     0.093424004645691
    C               -0.789332513063089     1.597124291871102    -0.875575995354309
    C                0.343667486936911     2.101124291871102    -1.529575995354309
    C                1.607667486936911     1.626124291871102    -1.233575995354309
    N                2.813667486936912    -0.015875708128898     0.224424004645691
    H               -1.545332513063089     0.233124291871102     0.610424004645691
    H               -1.763332513063089     1.984124291871102    -1.136575995354309
    H                0.221667486936911     2.882124291871103    -2.266575995354309
    H                0.718667486936911    -2.674875708128898     2.342424004645691
    H               -0.732332513063089    -1.863875708128898     1.813424004645691
    H                3.091667486936912    -1.579875708128898     1.727424004645691
    H                3.774667486936912     0.210124291871102    -0.027575995354309
    H                2.491667486936912     2.030124291871102    -1.697575995354309
    H                0.147401486936911    -1.295025708128898     3.268154004645691
    C               -4.215332513063088    -0.522875708128898    -1.001575995354309
    C               -4.059332513063088    -1.977875708128898    -0.594575995354309
    H               -3.372332513063089     0.073124291871102    -0.661575995354309
    H               -4.268332513063088    -0.460875708128898    -2.089575995354309
    H               -5.144332513063089    -0.108875708128898    -0.609575995354309
    H               -4.967332513063090    -2.508875708128897    -0.883575995354309
    H               -3.918449513063088    -2.061545708128898     0.493154004645691
    H               -3.209492513063088    -2.429775708128898    -1.127075995354309

}
e, wfn = energy('scf', return_wfn=True)
gdma(wfn)
dmavals = variable('DMA DISTRIBUTED MULTIPOLES')
charges = np.array(dmavals)
print(charges)
np.save('SSI-010TRP-034VAL-1-dimer.npy', np.array(charges))--------------------------------------------------------------------------

*** tstart() called on ds3
*** at Mon Apr 27 12:56:09 2020

   => Loading Basis Set <=

    Name: CC-PVDZ
    Role: ORBITAL
    Keyword: BASIS
    atoms 1-9, 20-21   entry C          line   138 file /theoryfs2/ds/metcalf/miniconda2/envs/tf2gpu/share/psi4/basis/cc-pvdz.gbs 
    atoms 10           entry N          line   168 file /theoryfs2/ds/metcalf/miniconda2/envs/tf2gpu/share/psi4/basis/cc-pvdz.gbs 
    atoms 11-19, 22-27 entry H          line    22 file /theoryfs2/ds/metcalf/miniconda2/envs/tf2gpu/share/psi4/basis/cc-pvdz.gbs 


         ---------------------------------------------------------
                                   SCF
               by Justin Turney, Rob Parrish, Andy Simmonett
                          and Daniel G. A. Smith
                              RHF Reference
                        1 Threads,    500 MiB Core
         ---------------------------------------------------------

  ==> Geometry <==

    Molecular point group: c1
    Full point group: C1

    Geometry (in Angstrom), charge = 0, multiplicity = 1:

       Center              X                  Y                   Z               Mass       
    ------------   -----------------  -----------------  -----------------  -----------------
         C            0.252667486937    -1.708875708129     2.254424004646    12.000000000000
         C            0.591667486937     0.107124291871     0.409424004646    12.000000000000
         C            1.073667486937    -0.882875708129     1.329424004646    12.000000000000
         C            1.716667486937     0.634124291871    -0.271575995354    12.000000000000
         C            2.423667486937    -0.923875708129     1.178424004646    12.000000000000
         C           -0.677332513063     0.605124291871     0.093424004646    12.000000000000
         C           -0.789332513063     1.597124291871    -0.875575995354    12.000000000000
         C            0.343667486937     2.101124291871    -1.529575995354    12.000000000000
         C            1.607667486937     1.626124291871    -1.233575995354    12.000000000000
         N            2.813667486937    -0.015875708129     0.224424004646    14.003074004430
         H           -1.545332513063     0.233124291871     0.610424004646     1.007825032230
         H           -1.763332513063     1.984124291871    -1.136575995354     1.007825032230
         H            0.221667486937     2.882124291871    -2.266575995354     1.007825032230
         H            0.718667486937    -2.674875708129     2.342424004646     1.007825032230
         H           -0.732332513063    -1.863875708129     1.813424004646     1.007825032230
         H            3.091667486937    -1.579875708129     1.727424004646     1.007825032230
         H            3.774667486937     0.210124291871    -0.027575995354     1.007825032230
         H            2.491667486937     2.030124291871    -1.697575995354     1.007825032230
         H            0.147401486937    -1.295025708129     3.268154004646     1.007825032230
         C           -4.215332513063    -0.522875708129    -1.001575995354    12.000000000000
         C           -4.059332513063    -1.977875708129    -0.594575995354    12.000000000000
         H           -3.372332513063     0.073124291871    -0.661575995354     1.007825032230
         H           -4.268332513063    -0.460875708129    -2.089575995354     1.007825032230
         H           -5.144332513063    -0.108875708129    -0.609575995354     1.007825032230
         H           -4.967332513063    -2.508875708129    -0.883575995354     1.007825032230
         H           -3.918449513063    -2.061545708129     0.493154004646     1.007825032230
         H           -3.209492513063    -2.429775708129    -1.127075995354     1.007825032230

  Running in c1 symmetry.

  Rotational constants: A =      0.03820  B =      0.01828  C =      0.01304 [cm^-1]
  Rotational constants: A =   1145.24170  B =    548.02780  C =    390.88807 [MHz]
  Nuclear repulsion =  648.397811600275645

  Charge       = 0
  Multiplicity = 1
  Electrons    = 88
  Nalpha       = 44
  Nbeta        = 44

  ==> Algorithm <==

  SCF Algorithm Type is PK.
  DIIS enabled.
  MOM disabled.
  Fractional occupation disabled.
  Guess Type is SAD.
  Energy threshold   = 1.00e-06
  Density threshold  = 1.00e-10
  Integral threshold = 0.00e+00

  ==> Primary Basis <==

  Basis Set: CC-PVDZ
    Blend: CC-PVDZ
    Number of shells: 117
    Number of basis function: 243
    Number of Cartesian functions: 255
    Spherical Harmonics?: true
    Max angular momentum: 2

  ==> Pre-Iterations <==

   -------------------------------------------------------
    Irrep   Nso     Nmo     Nalpha   Nbeta   Ndocc  Nsocc
   -------------------------------------------------------
     A        243     243       0       0       0       0
   -------------------------------------------------------
    Total     243     243      44      44      44       0
   -------------------------------------------------------

  ==> Integral Setup <==

  Using integral reordering PK algorithm.
  Sizing the integral batches needed.
  Building batch lookup table.
   Calculation information:
      Number of atoms:                  27
      Number of AO shells:             117
      Number of primitives:            339
      Number of atomic orbitals:       255
      Number of basis functions:       243

      Integral cutoff                 1.00e-12
      Number of threads:                 1

	Batch   1 pq = [       0,    9405] index = [             0,44231715] size =     44231715
	Batch   2 pq = [    9405,   13301] index = [      44231715,88464951] size =     44233236
	Batch   3 pq = [   13301,   16290] index = [      88464951,132690195] size =     44225244
	Batch   4 pq = [   16290,   18810] index = [     132690195,176917455] size =     44227260
	Batch   5 pq = [   18810,   21030] index = [     176917455,221140965] size =     44223510
	Batch   6 pq = [   21030,   23037] index = [     221140965,265363203] size =     44222238
	Batch   7 pq = [   23037,   24883] index = [     265363203,309594286] size =     44231083
	Batch   8 pq = [   24883,   26601] index = [     309594286,353819901] size =     44225615
	Batch   9 pq = [   26601,   28214] index = [     353819901,398029005] size =     44209104
	Batch  10 pq = [   28214,   29646] index = [     398029005,439457481] size =     41428476
  Task number: 40
  Buffer size: 11059200
  Buffer per thread: 2
  We computed 21089352 shell quartets total.
  Whereas there are 23829156 unique shell quartets.

  ==> DiskJK: Disk-Based J/K Matrices <==

    J tasked:                  Yes
    K tasked:                  Yes
    wK tasked:                  No
    Memory [MiB]:              375
    Schwarz Cutoff:          1E-12

    OpenMP threads:              1

  Minimum eigenvalue in the overlap matrix is 2.3286845806E-04.
  Using Symmetric Orthogonalization.

  SCF Guess: Superposition of Atomic Densities via on-the-fly atomic UHF.

  ==> Iterations <==

                        Total Energy        Delta E     RMS |[F,P]|

   @RHF iter SAD:  -479.11994490896222   -4.79120e+02   0.00000e+00 
   @RHF iter   1:  -479.48505263342656   -3.65108e-01   2.62446e-03 DIIS
   @RHF iter   2:  -479.71945320940546   -2.34401e-01   1.17548e-03 DIIS
   @RHF iter   3:  -479.76242285328425   -4.29696e-02   3.06442e-04 DIIS
   @RHF iter   4:  -479.76628358142443   -3.86073e-03   1.41153e-04 DIIS
   @RHF iter   5:  -479.76694819859256   -6.64617e-04   1.99863e-05 DIIS
   @RHF iter   6:  -479.76697716446597   -2.89659e-05   9.14040e-06 DIIS
   @RHF iter   7:  -479.76698303793319   -5.87347e-06   3.81760e-06 DIIS
   @RHF iter   8:  -479.76698470962828   -1.67170e-06   1.51811e-06 DIIS
   @RHF iter   9:  -479.76698504861861   -3.38990e-07   6.69022e-07 DIIS
   @RHF iter  10:  -479.76698511601001   -6.73914e-08   3.03839e-07 DIIS
   @RHF iter  11:  -479.76698513213540   -1.61254e-08   1.15051e-07 DIIS
   @RHF iter  12:  -479.76698513439737   -2.26197e-09   3.67998e-08 DIIS
   @RHF iter  13:  -479.76698513454630   -1.48930e-10   9.18717e-09 DIIS
   @RHF iter  14:  -479.76698513455500   -8.69704e-12   3.45674e-09 DIIS
   @RHF iter  15:  -479.76698513455631   -1.30740e-12   1.74850e-09 DIIS
   @RHF iter  16:  -479.76698513455790   -1.59162e-12   8.86528e-10 DIIS
   @RHF iter  17:  -479.76698513455921   -1.30740e-12   3.15938e-10 DIIS
   @RHF iter  18:  -479.76698513455790    1.30740e-12   1.44313e-10 DIIS
   @RHF iter  19:  -479.76698513455824   -3.41061e-13   4.60928e-11 DIIS
  Energy and wave function converged.


  ==> Post-Iterations <==

    Orbital Energies [Eh]
    ---------------------

    Doubly Occupied:                                                      

       1A    -15.601111     2A    -11.263376     3A    -11.261457  
       4A    -11.229480     5A    -11.229391     6A    -11.228113  
       7A    -11.223400     8A    -11.220422     9A    -11.218759  
      10A    -11.215790    11A    -11.215733    12A    -11.211458  
      13A     -1.295818    14A     -1.128695    15A     -1.075063  
      16A     -1.017359    17A     -0.997802    18A     -0.987946  
      19A     -0.932760    20A     -0.839861    21A     -0.832605  
      22A     -0.803242    23A     -0.754028    24A     -0.719386  
      25A     -0.662858    26A     -0.643167    27A     -0.606124  
      28A     -0.599985    29A     -0.594179    30A     -0.592092  
      31A     -0.585990    32A     -0.568910    33A     -0.552040  
      34A     -0.539926    35A     -0.526756    36A     -0.499246  
      37A     -0.494615    38A     -0.482712    39A     -0.480026  
      40A     -0.470575    41A     -0.461310    42A     -0.372931  
      43A     -0.294870    44A     -0.274686  

    Virtual:                                                              

      45A      0.125076    46A      0.166563    47A      0.173280  
      48A      0.180879    49A      0.199355    50A      0.207700  
      51A      0.219683    52A      0.220865    53A      0.238935  
      54A      0.245746    55A      0.255036    56A      0.264970  
      57A      0.280757    58A      0.282267    59A      0.295417  
      60A      0.300483    61A      0.312607    62A      0.357851  
      63A      0.374160    64A      0.386270    65A      0.400029  
      66A      0.411218    67A      0.432652    68A      0.459793  
      69A      0.471358    70A      0.481281    71A      0.508394  
      72A      0.536935    73A      0.597063    74A      0.597702  
      75A      0.611192    76A      0.614082    77A      0.631901  
      78A      0.645041    79A      0.647492    80A      0.662680  
      81A      0.684582    82A      0.690267    83A      0.696561  
      84A      0.702213    85A      0.722049    86A      0.729236  
      87A      0.738322    88A      0.744864    89A      0.746186  
      90A      0.761165    91A      0.768211    92A      0.782508  
      93A      0.791650    94A      0.791949    95A      0.800770  
      96A      0.846549    97A      0.847488    98A      0.863780  
      99A      0.875382   100A      0.880126   101A      0.889456  
     102A      0.894321   103A      0.895832   104A      0.901658  
     105A      0.909732   106A      0.910627   107A      0.922380  
     108A      0.931586   109A      0.942255   110A      0.952971  
     111A      0.969438   112A      0.974730   113A      0.992012  
     114A      1.003270   115A      1.011657   116A      1.021644  
     117A      1.070037   118A      1.081226   119A      1.095639  
     120A      1.126729   121A      1.134750   122A      1.136553  
     123A      1.142601   124A      1.152602   125A      1.160592  
     126A      1.188612   127A      1.212840   128A      1.228480  
     129A      1.235105   130A      1.238204   131A      1.250981  
     132A      1.273156   133A      1.286517   134A      1.304113  
     135A      1.313735   136A      1.330278   137A      1.338229  
     138A      1.362932   139A      1.382475   140A      1.438244  
     141A      1.448998   142A      1.482462   143A      1.491667  
     144A      1.523014   145A      1.548665   146A      1.569232  
     147A      1.587895   148A      1.616676   149A      1.630119  
     150A      1.639992   151A      1.653268   152A      1.684221  
     153A      1.691900   154A      1.704626   155A      1.708302  
     156A      1.741452   157A      1.760967   158A      1.770668  
     159A      1.789028   160A      1.808141   161A      1.826458  
     162A      1.832945   163A      1.864263   164A      1.872491  
     165A      1.890511   166A      1.892091   167A      1.903551  
     168A      1.907617   169A      1.909088   170A      1.925196  
     171A      1.931060   172A      1.942659   173A      1.949194  
     174A      1.951954   175A      1.953155   176A      1.956300  
     177A      1.971898   178A      1.983714   179A      1.988669  
     180A      2.005127   181A      2.010795   182A      2.027007  
     183A      2.050087   184A      2.075074   185A      2.084910  
     186A      2.090757   187A      2.104239   188A      2.109970  
     189A      2.116361   190A      2.125530   191A      2.131976  
     192A      2.153779   193A      2.166450   194A      2.183048  
     195A      2.191992   196A      2.238514   197A      2.268326  
     198A      2.286012   199A      2.301055   200A      2.306933  
     201A      2.317640   202A      2.341417   203A      2.347447  
     204A      2.364821   205A      2.407911   206A      2.413927  
     207A      2.455612   208A      2.461642   209A      2.464454  
     210A      2.474727   211A      2.543899   212A      2.570841  
     213A      2.583504   214A      2.593960   215A      2.605944  
     216A      2.642126   217A      2.662670   218A      2.692877  
     219A      2.722823   220A      2.764308   221A      2.775528  
     222A      2.779620   223A      2.786721   224A      2.797978  
     225A      2.825509   226A      2.840665   227A      2.853419  
     228A      2.858307   229A      2.878737   230A      2.896707  
     231A      2.919919   232A      2.954579   233A      2.976122  
     234A      2.998662   235A      3.037072   236A      3.051238  
     237A      3.083563   238A      3.123120   239A      3.212094  
     240A      3.314046   241A      3.386296   242A      3.737347  
     243A      3.961758  

    Final Occupation by Irrep:
              A 
    DOCC [    44 ]

  @RHF Final Energy:  -479.76698513455824

   => Energetics <=

    Nuclear Repulsion Energy =            648.3978116002756451
    One-Electron Energy =               -1934.7174850621299811
    Two-Electron Energy =                 806.5526883272960958
    Total Energy =                       -479.7669851345582401

Computation Completed


Properties will be evaluated at   0.000000,   0.000000,   0.000000 [a0]

Properties computed using the SCF density matrix

  Nuclear Dipole Moment: [e a0]
     X:   -17.3284      Y:    -7.0974      Z:    -0.2300

  Electronic Dipole Moment: [e a0]
     X:    18.1457      Y:     6.9342      Z:     0.3391

  Dipole Moment: [e a0]
     X:     0.8172      Y:    -0.1632      Z:     0.1090     Total:     0.8405

  Dipole Moment: [D]
     X:     2.0772      Y:    -0.4147      Z:     0.2771     Total:     2.1363


*** tstop() called on ds3 at Mon Apr 27 13:00:36 2020
Module time:
	user time   =     185.06 seconds =       3.08 minutes
	system time =      91.06 seconds =       1.52 minutes
	total time  =        267 seconds =       4.45 minutes
Total time:
	user time   =     185.06 seconds =       3.08 minutes
	system time =      91.06 seconds =       1.52 minutes
	total time  =        267 seconds =       4.45 minutes
                                     G D M A

                                 by Anthony Stone

                           version 2.2.06, 22 June 2011

               Distributed Multipoles from Gaussian wavefunctions


Starting at 13:0:36 on 27 Apr 2020  


Using SCF density matrix from file ./SSI/SSI-010TRP-034VAL-1-dimer.test.4694.fchk


                         Distributed Multipole Analysis

Standard DMA

Positions and radii in angstrom
Multipole moments in atomic units, ea_0^k for rank k

C          x =  0.252667  y = -1.708876  z =  2.254424 angstrom
           Maximum rank =  0   Radius =  0.650 angstrom
                   Q00  =  -0.219293

C          x =  0.591667  y =  0.107124  z =  0.409424 angstrom
           Maximum rank =  0   Radius =  0.650 angstrom
                   Q00  =  -0.039857

C          x =  1.073667  y = -0.882876  z =  1.329424 angstrom
           Maximum rank =  0   Radius =  0.650 angstrom
                   Q00  =  -0.123225

C          x =  1.716667  y =  0.634124  z = -0.271576 angstrom
           Maximum rank =  0   Radius =  0.650 angstrom
                   Q00  =   0.294702

C          x =  2.423667  y = -0.923876  z =  1.178424 angstrom
           Maximum rank =  0   Radius =  0.650 angstrom
                   Q00  =   0.074006

C          x = -0.677333  y =  0.605124  z =  0.093424 angstrom
           Maximum rank =  0   Radius =  0.650 angstrom
                   Q00  =  -0.110046

C          x = -0.789333  y =  1.597124  z = -0.875576 angstrom
           Maximum rank =  0   Radius =  0.650 angstrom
                   Q00  =  -0.082563

C          x =  0.343667  y =  2.101124  z = -1.529576 angstrom
           Maximum rank =  0   Radius =  0.650 angstrom
                   Q00  =  -0.073827

C          x =  1.607667  y =  1.626124  z = -1.233576 angstrom
           Maximum rank =  0   Radius =  0.650 angstrom
                   Q00  =  -0.119964

N          x =  2.813667  y = -0.015876  z =  0.224424 angstrom
           Maximum rank =  0   Radius =  0.650 angstrom
                   Q00  =  -0.493912

H          x = -1.545333  y =  0.233124  z =  0.610424 angstrom
           Maximum rank =  0   Radius =  0.325 angstrom
                   Q00  =   0.071573

H          x = -1.763333  y =  1.984124  z = -1.136576 angstrom
           Maximum rank =  0   Radius =  0.325 angstrom
                   Q00  =   0.060676

H          x =  0.221667  y =  2.882124  z = -2.266576 angstrom
           Maximum rank =  0   Radius =  0.325 angstrom
                   Q00  =   0.064461

H          x =  0.718667  y = -2.674876  z =  2.342424 angstrom
           Maximum rank =  0   Radius =  0.325 angstrom
                   Q00  =   0.105646

H          x = -0.732333  y = -1.863876  z =  1.813424 angstrom
           Maximum rank =  0   Radius =  0.325 angstrom
                   Q00  =   0.104476

H          x =  3.091667  y = -1.579876  z =  1.727424 angstrom
           Maximum rank =  0   Radius =  0.325 angstrom
                   Q00  =   0.100112

H          x =  3.774667  y =  0.210124  z = -0.027576 angstrom
           Maximum rank =  0   Radius =  0.325 angstrom
                   Q00  =   0.215453

H          x =  2.491667  y =  2.030124  z = -1.697576 angstrom
           Maximum rank =  0   Radius =  0.325 angstrom
                   Q00  =   0.073236

H          x =  0.147401  y = -1.295026  z =  3.268154 angstrom
           Maximum rank =  0   Radius =  0.325 angstrom
                   Q00  =   0.099291

C          x = -4.215333  y = -0.522876  z = -1.001576 angstrom
           Maximum rank =  0   Radius =  0.650 angstrom
                   Q00  =  -0.233154

C          x = -4.059333  y = -1.977876  z = -0.594576 angstrom
           Maximum rank =  0   Radius =  0.650 angstrom
                   Q00  =  -0.239217

H          x = -3.372333  y =  0.073124  z = -0.661576 angstrom
           Maximum rank =  0   Radius =  0.325 angstrom
                   Q00  =   0.084754

H          x = -4.268333  y = -0.460876  z = -2.089576 angstrom
           Maximum rank =  0   Radius =  0.325 angstrom
                   Q00  =   0.077512

H          x = -5.144333  y = -0.108876  z = -0.609576 angstrom
           Maximum rank =  0   Radius =  0.325 angstrom
                   Q00  =   0.074701

H          x = -4.967333  y = -2.508876  z = -0.883576 angstrom
           Maximum rank =  0   Radius =  0.325 angstrom
                   Q00  =   0.077675

H          x = -3.918450  y = -2.061546  z =  0.493154 angstrom
           Maximum rank =  0   Radius =  0.325 angstrom
                   Q00  =   0.075000

H          x = -3.209493  y = -2.429776  z = -1.127076 angstrom
           Maximum rank =  0   Radius =  0.325 angstrom
                   Q00  =   0.081784

Total multipoles referred to origin at
           x =   0.000000,  y =    0.000000,  z =    0.000000 angstrom
                   Q00  =  -0.000000

Finished at 13:0:36 on 27 Apr 2020  

  DMA results are available in the Python driver through the
	  variable('DMA DISTRIBUTED MULTIPOLES')
  and
	  variable('DMA TOTAL MULTIPOLES')
  commands.


    Psi4 stopped on: Monday, 27 April 2020 01:00PM
    Psi4 wall time for execution: 0:04:26.60

*** Psi4 exiting successfully. Buy a developer a beer!
