
    -----------------------------------------------------------------------
          Psi4: An Open-Source Ab Initio Electronic Structure Package
                               Psi4 1.3.2 release

                         Git: Rev {HEAD} ecbda83 


    R. M. Parrish, L. A. Burns, D. G. A. Smith, A. C. Simmonett,
    A. E. DePrince III, E. G. Hohenstein, U. Bozkaya, A. Yu. Sokolov,
    R. Di Remigio, R. M. Richard, J. F. Gonthier, A. M. James,
    H. R. McAlexander, A. Kumar, M. Saitow, X. Wang, B. P. Pritchard,
    P. Verma, H. F. Schaefer III, K. Patkowski, R. A. King, E. F. Valeev,
    F. A. Evangelista, J. M. Turney, T. D. Crawford, and C. D. Sherrill,
    J. Chem. Theory Comput. 13(7) pp 3185--3197 (2017).
    (doi: 10.1021/acs.jctc.7b00174)


                         Additional Contributions by
    P. Kraus, H. Kruse, M. H. Lechner, M. C. Schieber, R. A. Shaw,
    A. Alenaizan, R. Galvelis, Z. L. Glick, S. Lehtola, and J. P. Misiewicz

    -----------------------------------------------------------------------


    Psi4 started on: Sunday, 26 April 2020 06:18PM

    Process ID: 3106
    Host:       ds3
    PSIDATADIR: /theoryfs2/ds/metcalf/miniconda2/envs/tf2gpu/share/psi4
    Memory:     500.0 MiB
    Threads:    1
    
  ==> Input File <==

--------------------------------------------------------------------------
import numpy as np
set {scf_type pk
basis cc-pvdz
d_convergence 10
gdma_switch   0
gdma_limit    0
gdma_origin   [ 0.0,  0.0,  0.0 ]
}
molecule test {
    units Angstrom
    -1 1
    --
    -1 1
    C                0.103416542508080    -0.953041434367450    -0.462090969537081
    C                0.437416542508080    -2.427041434367450    -0.664090969537081
    C                1.290416542508080    -0.131041434367450    -0.016090969537081
    O                2.351416542508080    -0.698041434367450     0.305909030462919
    O                1.123416542508080     1.119958565632550    -0.000090969537081
    H               -0.278583457491920    -0.553041434367450    -1.404090969537081
    H               -0.678583457491920    -0.864041434367451     0.287909030462919
    H                0.787416542508080    -2.858041434367451     0.273909030462919
    H                1.231416542508080    -2.495041434367451    -1.408090969537081
    H               -0.435162457491920    -2.996302434367450    -1.017000969537081
    C               -2.995583457491920     0.855958565632550     0.387909030462919
    C               -2.206583457491920     2.155958565632550     0.415909030462919
    H               -4.021583457491920     1.041958565632550     0.064909030462919
    H               -2.543583457491920     0.157958565632550    -0.315090969537081
    H               -3.002583457491920     0.415958565632550     1.385909030462919
    H               -1.238583457491920     1.965958565632550     0.882909030462919
    H               -2.785581457491920     2.870878565632550     1.018939030462919
    H               -2.045776457491920     2.561598565632550    -0.593840969537081

}
e, wfn = energy('scf', return_wfn=True)
gdma(wfn)
dmavals = variable('DMA DISTRIBUTED MULTIPOLES')
charges = np.array(dmavals)
print(charges)
np.save('SSI-042GLU-121ALA-1-dimer.npy', np.array(charges))--------------------------------------------------------------------------

*** tstart() called on ds3
*** at Sun Apr 26 18:18:12 2020

   => Loading Basis Set <=

    Name: CC-PVDZ
    Role: ORBITAL
    Keyword: BASIS
    atoms 1-3, 11-12  entry C          line   138 file /theoryfs2/ds/metcalf/miniconda2/envs/tf2gpu/share/psi4/basis/cc-pvdz.gbs 
    atoms 4-5         entry O          line   198 file /theoryfs2/ds/metcalf/miniconda2/envs/tf2gpu/share/psi4/basis/cc-pvdz.gbs 
    atoms 6-10, 13-18 entry H          line    22 file /theoryfs2/ds/metcalf/miniconda2/envs/tf2gpu/share/psi4/basis/cc-pvdz.gbs 


         ---------------------------------------------------------
                                   SCF
               by Justin Turney, Rob Parrish, Andy Simmonett
                          and Daniel G. A. Smith
                              RHF Reference
                        1 Threads,    500 MiB Core
         ---------------------------------------------------------

  ==> Geometry <==

    Molecular point group: c1
    Full point group: C1

    Geometry (in Angstrom), charge = -1, multiplicity = 1:

       Center              X                  Y                   Z               Mass       
    ------------   -----------------  -----------------  -----------------  -----------------
         C            0.103416542508    -0.953041434367    -0.462090969537    12.000000000000
         C            0.437416542508    -2.427041434367    -0.664090969537    12.000000000000
         C            1.290416542508    -0.131041434367    -0.016090969537    12.000000000000
         O            2.351416542508    -0.698041434367     0.305909030463    15.994914619570
         O            1.123416542508     1.119958565633    -0.000090969537    15.994914619570
         H           -0.278583457492    -0.553041434367    -1.404090969537     1.007825032230
         H           -0.678583457492    -0.864041434367     0.287909030463     1.007825032230
         H            0.787416542508    -2.858041434367     0.273909030463     1.007825032230
         H            1.231416542508    -2.495041434367    -1.408090969537     1.007825032230
         H           -0.435162457492    -2.996302434367    -1.017000969537     1.007825032230
         C           -2.995583457492     0.855958565633     0.387909030463    12.000000000000
         C           -2.206583457492     2.155958565633     0.415909030463    12.000000000000
         H           -4.021583457492     1.041958565633     0.064909030463     1.007825032230
         H           -2.543583457492     0.157958565633    -0.315090969537     1.007825032230
         H           -3.002583457492     0.415958565633     1.385909030463     1.007825032230
         H           -1.238583457492     1.965958565633     0.882909030463     1.007825032230
         H           -2.785581457492     2.870878565633     1.018939030463     1.007825032230
         H           -2.045776457492     2.561598565633    -0.593840969537     1.007825032230

  Running in c1 symmetry.

  Rotational constants: A =      0.11183  B =      0.03758  C =      0.02933 [cm^-1]
  Rotational constants: A =   3352.61608  B =   1126.48709  C =    879.15588 [MHz]
  Nuclear repulsion =  296.115278323909308

  Charge       = -1
  Multiplicity = 1
  Electrons    = 58
  Nalpha       = 29
  Nbeta        = 29

  ==> Algorithm <==

  SCF Algorithm Type is PK.
  DIIS enabled.
  MOM disabled.
  Fractional occupation disabled.
  Guess Type is SAD.
  Energy threshold   = 1.00e-06
  Density threshold  = 1.00e-10
  Integral threshold = 0.00e+00

  ==> Primary Basis <==

  Basis Set: CC-PVDZ
    Blend: CC-PVDZ
    Number of shells: 75
    Number of basis function: 153
    Number of Cartesian functions: 160
    Spherical Harmonics?: true
    Max angular momentum: 2

  ==> Pre-Iterations <==

   -------------------------------------------------------
    Irrep   Nso     Nmo     Nalpha   Nbeta   Ndocc  Nsocc
   -------------------------------------------------------
     A        153     153       0       0       0       0
   -------------------------------------------------------
    Total     153     153      29      29      29       0
   -------------------------------------------------------

  ==> Integral Setup <==

  Using integral reordering PK algorithm.
  Sizing the integral batches needed.
  Building batch lookup table.
   Calculation information:
      Number of atoms:                  18
      Number of AO shells:              75
      Number of primitives:            209
      Number of atomic orbitals:       160
      Number of basis functions:       153

      Integral cutoff                 1.00e-12
      Number of threads:                 1

	Batch   1 pq = [       0,    9405] index = [             0,44231715] size =     44231715
	Batch   2 pq = [    9405,   11781] index = [      44231715,69401871] size =     25170156
  Task number: 7
  Buffer size: 11059200
  Buffer per thread: 2
  We computed 3577006 shell quartets total.
  Whereas there are 4062675 unique shell quartets.

  ==> DiskJK: Disk-Based J/K Matrices <==

    J tasked:                  Yes
    K tasked:                  Yes
    wK tasked:                  No
    Memory [MiB]:              375
    Schwarz Cutoff:          1E-12

    OpenMP threads:              1

  Minimum eigenvalue in the overlap matrix is 3.4251335121E-03.
  Using Symmetric Orthogonalization.

  SCF Guess: Superposition of Atomic Densities via on-the-fly atomic UHF.

  ==> Iterations <==

                        Total Energy        Delta E     RMS |[F,P]|

   @RHF iter SAD:  -343.91138511992062   -3.43911e+02   0.00000e+00 
   @RHF iter   1:  -345.22135470173663   -1.30997e+00   4.91577e-03 DIIS
   @RHF iter   2:  -345.44645564444420   -2.25101e-01   2.70314e-03 DIIS
   @RHF iter   3:  -345.51094954832956   -6.44939e-02   4.26850e-04 DIIS
   @RHF iter   4:  -345.51396019486663   -3.01065e-03   1.69162e-04 DIIS
   @RHF iter   5:  -345.51440904743993   -4.48853e-04   2.42091e-05 DIIS
   @RHF iter   6:  -345.51442272892706   -1.36815e-05   4.79262e-06 DIIS
   @RHF iter   7:  -345.51442330696739   -5.78040e-07   1.57439e-06 DIIS
   @RHF iter   8:  -345.51442336554783   -5.85804e-08   5.05807e-07 DIIS
   @RHF iter   9:  -345.51442337546484   -9.91702e-09   2.34612e-07 DIIS
   @RHF iter  10:  -345.51442337703173   -1.56689e-09   9.61373e-08 DIIS
   @RHF iter  11:  -345.51442337736438   -3.32648e-10   3.47283e-08 DIIS
   @RHF iter  12:  -345.51442337739957   -3.51861e-11   7.63685e-09 DIIS
   @RHF iter  13:  -345.51442337740309   -3.52429e-12   2.22674e-09 DIIS
   @RHF iter  14:  -345.51442337740156    1.53477e-12   6.98307e-10 DIIS
   @RHF iter  15:  -345.51442337740258   -1.02318e-12   2.64613e-10 DIIS
   @RHF iter  16:  -345.51442337740087    1.70530e-12   9.09014e-11 DIIS
  Energy and wave function converged.


  ==> Post-Iterations <==

    Orbital Energies [Eh]
    ---------------------

    Doubly Occupied:                                                      

       1A    -20.267302     2A    -20.257512     3A    -11.115370  
       4A    -11.103479     5A    -11.093349     6A    -11.068693  
       7A    -11.051764     8A     -1.150287     9A     -1.037837  
      10A     -0.902265    11A     -0.871834    12A     -0.716541  
      13A     -0.702122    14A     -0.511035    15A     -0.482753  
      16A     -0.479997    17A     -0.460234    18A     -0.433124  
      19A     -0.391686    20A     -0.382422    21A     -0.369066  
      22A     -0.367099    23A     -0.356360    24A     -0.355104  
      25A     -0.324317    26A     -0.299719    27A     -0.184158  
      28A     -0.173538    29A     -0.162900  

    Virtual:                                                              

      30A      0.297438    31A      0.331230    32A      0.345307  
      33A      0.359816    34A      0.365729    35A      0.385124  
      36A      0.395559    37A      0.411965    38A      0.418095  
      39A      0.431688    40A      0.462060    41A      0.495449  
      42A      0.514966    43A      0.550929    44A      0.623469  
      45A      0.691986    46A      0.710074    47A      0.714665  
      48A      0.720779    49A      0.734925    50A      0.760443  
      51A      0.792361    52A      0.819875    53A      0.882332  
      54A      0.905830    55A      0.943452    56A      0.967876  
      57A      0.981055    58A      0.987360    59A      1.000863  
      60A      1.009729    61A      1.020801    62A      1.029151  
      63A      1.041902    64A      1.048668    65A      1.050400  
      66A      1.060214    67A      1.065754    68A      1.084101  
      69A      1.108602    70A      1.113103    71A      1.142117  
      72A      1.158703    73A      1.234365    74A      1.248550  
      75A      1.272688    76A      1.314316    77A      1.315633  
      78A      1.358540    79A      1.410406    80A      1.473205  
      81A      1.499842    82A      1.541700    83A      1.575727  
      84A      1.598017    85A      1.623615    86A      1.633276  
      87A      1.660357    88A      1.675768    89A      1.699700  
      90A      1.733620    91A      1.792332    92A      1.825663  
      93A      1.833925    94A      1.851293    95A      1.865285  
      96A      1.940654    97A      1.980781    98A      1.999873  
      99A      2.015088   100A      2.046969   101A      2.053091  
     102A      2.056357   103A      2.067077   104A      2.070387  
     105A      2.080836   106A      2.094139   107A      2.097688  
     108A      2.134477   109A      2.153524   110A      2.175784  
     111A      2.184191   112A      2.204229   113A      2.216560  
     114A      2.240604   115A      2.246111   116A      2.265957  
     117A      2.339774   118A      2.389928   119A      2.414847  
     120A      2.426906   121A      2.466778   122A      2.520865  
     123A      2.537108   124A      2.572114   125A      2.582272  
     126A      2.645747   127A      2.669680   128A      2.693819  
     129A      2.702548   130A      2.725953   131A      2.781352  
     132A      2.802621   133A      2.889504   134A      2.910051  
     135A      2.923033   136A      2.961877   137A      2.974786  
     138A      2.995480   139A      3.005637   140A      3.067050  
     141A      3.081277   142A      3.099771   143A      3.136882  
     144A      3.244194   145A      3.289823   146A      3.304964  
     147A      3.361216   148A      3.627026   149A      3.797561  
     150A      3.832868   151A      4.048299   152A      4.093113  
     153A      4.200328  

    Final Occupation by Irrep:
              A 
    DOCC [    29 ]

  @RHF Final Energy:  -345.51442337740087

   => Energetics <=

    Nuclear Repulsion Energy =            296.1152783239093083
    One-Electron Energy =               -1069.1156668978603648
    Two-Electron Energy =                 427.4859651965502394
    Total Energy =                       -345.5144233774008740

Computation Completed


Properties will be evaluated at   0.000000,   0.000000,   0.000000 [a0]

Properties computed using the SCF density matrix

  Nuclear Dipole Moment: [e a0]
     X:   -14.0558      Y:    -0.7031      Z:    -0.7707

  Electronic Dipole Moment: [e a0]
     X:    11.1461      Y:     0.2104      Z:     0.4594

  Dipole Moment: [e a0]
     X:    -2.9098      Y:    -0.4927      Z:    -0.3112     Total:     2.9676

  Dipole Moment: [D]
     X:    -7.3959      Y:    -1.2524      Z:    -0.7910     Total:     7.5428


*** tstop() called on ds3 at Sun Apr 26 18:18:52 2020
Module time:
	user time   =      24.48 seconds =       0.41 minutes
	system time =       9.57 seconds =       0.16 minutes
	total time  =         40 seconds =       0.67 minutes
Total time:
	user time   =      24.48 seconds =       0.41 minutes
	system time =       9.57 seconds =       0.16 minutes
	total time  =         40 seconds =       0.67 minutes
                                     G D M A

                                 by Anthony Stone

                           version 2.2.06, 22 June 2011

               Distributed Multipoles from Gaussian wavefunctions


Starting at 18:18:52 on 26 Apr 2020 


Using SCF density matrix from file ./SSI/SSI-042GLU-121ALA-1-dimer.test.3106.fchk


                         Distributed Multipole Analysis

Standard DMA

Positions and radii in angstrom
Multipole moments in atomic units, ea_0^k for rank k

C          x =  0.103417  y = -0.953041  z = -0.462091 angstrom
           Maximum rank =  0   Radius =  0.650 angstrom
                   Q00  =  -0.168733

C          x =  0.437417  y = -2.427041  z = -0.664091 angstrom
           Maximum rank =  0   Radius =  0.650 angstrom
                   Q00  =  -0.221588

C          x =  1.290417  y = -0.131041  z = -0.016091 angstrom
           Maximum rank =  0   Radius =  0.650 angstrom
                   Q00  =   1.036410

O          x =  2.351417  y = -0.698041  z =  0.305909 angstrom
           Maximum rank =  0   Radius =  0.650 angstrom
                   Q00  =  -0.950077

O          x =  1.123417  y =  1.119959  z = -0.000091 angstrom
           Maximum rank =  0   Radius =  0.650 angstrom
                   Q00  =  -0.954633

H          x = -0.278583  y = -0.553041  z = -1.404091 angstrom
           Maximum rank =  0   Radius =  0.325 angstrom
                   Q00  =   0.037240

H          x = -0.678583  y = -0.864041  z =  0.287909 angstrom
           Maximum rank =  0   Radius =  0.325 angstrom
                   Q00  =   0.054878

H          x =  0.787417  y = -2.858041  z =  0.273909 angstrom
           Maximum rank =  0   Radius =  0.325 angstrom
                   Q00  =   0.084014

H          x =  1.231417  y = -2.495041  z = -1.408091 angstrom
           Maximum rank =  0   Radius =  0.325 angstrom
                   Q00  =   0.078270

H          x = -0.435162  y = -2.996302  z = -1.017001 angstrom
           Maximum rank =  0   Radius =  0.325 angstrom
                   Q00  =   0.014076

C          x = -2.995583  y =  0.855959  z =  0.387909 angstrom
           Maximum rank =  0   Radius =  0.650 angstrom
                   Q00  =  -0.229973

C          x = -2.206583  y =  2.155959  z =  0.415909 angstrom
           Maximum rank =  0   Radius =  0.650 angstrom
                   Q00  =  -0.195233

H          x = -4.021583  y =  1.041959  z =  0.064909 angstrom
           Maximum rank =  0   Radius =  0.325 angstrom
                   Q00  =   0.036689

H          x = -2.543583  y =  0.157959  z = -0.315091 angstrom
           Maximum rank =  0   Radius =  0.325 angstrom
                   Q00  =   0.096315

H          x = -3.002583  y =  0.415959  z =  1.385909 angstrom
           Maximum rank =  0   Radius =  0.325 angstrom
                   Q00  =   0.065996

H          x = -1.238583  y =  1.965959  z =  0.882909 angstrom
           Maximum rank =  0   Radius =  0.325 angstrom
                   Q00  =   0.116261

H          x = -2.785581  y =  2.870879  z =  1.018939 angstrom
           Maximum rank =  0   Radius =  0.325 angstrom
                   Q00  =   0.025115

H          x = -2.045776  y =  2.561599  z = -0.593841 angstrom
           Maximum rank =  0   Radius =  0.325 angstrom
                   Q00  =   0.074974

Total multipoles referred to origin at
           x =   0.000000,  y =    0.000000,  z =    0.000000 angstrom
                   Q00  =  -1.000000

Finished at 18:18:52 on 26 Apr 2020 

  DMA results are available in the Python driver through the
	  variable('DMA DISTRIBUTED MULTIPOLES')
  and
	  variable('DMA TOTAL MULTIPOLES')
  commands.


    Psi4 stopped on: Sunday, 26 April 2020 06:18PM
    Psi4 wall time for execution: 0:00:40.32

*** Psi4 exiting successfully. Buy a developer a beer!
