
    -----------------------------------------------------------------------
          Psi4: An Open-Source Ab Initio Electronic Structure Package
                               Psi4 1.3.2 release

                         Git: Rev {HEAD} ecbda83 


    R. M. Parrish, L. A. Burns, D. G. A. Smith, A. C. Simmonett,
    A. E. DePrince III, E. G. Hohenstein, U. Bozkaya, A. Yu. Sokolov,
    R. Di Remigio, R. M. Richard, J. F. Gonthier, A. M. James,
    H. R. McAlexander, A. Kumar, M. Saitow, X. Wang, B. P. Pritchard,
    P. Verma, H. F. Schaefer III, K. Patkowski, R. A. King, E. F. Valeev,
    F. A. Evangelista, J. M. Turney, T. D. Crawford, and C. D. Sherrill,
    J. Chem. Theory Comput. 13(7) pp 3185--3197 (2017).
    (doi: 10.1021/acs.jctc.7b00174)


                         Additional Contributions by
    P. Kraus, H. Kruse, M. H. Lechner, M. C. Schieber, R. A. Shaw,
    A. Alenaizan, R. Galvelis, Z. L. Glick, S. Lehtola, and J. P. Misiewicz

    -----------------------------------------------------------------------


    Psi4 started on: Tuesday, 28 April 2020 03:49AM

    Process ID: 25381
    Host:       ds3
    PSIDATADIR: /theoryfs2/ds/metcalf/miniconda2/envs/tf2gpu/share/psi4
    Memory:     500.0 MiB
    Threads:    1
    
  ==> Input File <==

--------------------------------------------------------------------------
import numpy as np
set {scf_type pk
basis cc-pvdz
d_convergence 10
gdma_switch   0
gdma_limit    0
gdma_origin   [ 0.0,  0.0,  0.0 ]
}
molecule test {
    units Angstrom
    -1 1
    --
    -1 1
    C               -1.871684801337155    -0.355891102326987     0.731778531698821
    C               -1.930684801337155    -1.866891102326987     0.739778531698821
    O               -1.836684801337155     0.144108897673013    -0.595221468301179
    H               -2.755684801337155     0.037108897673013     1.236778531698821
    H               -0.986684801337155    -0.020891102326987     1.274778531698821
    H               -2.058684801337155    -2.171891102326987     1.780778531698821
    H               -0.952684801337155     0.574108897673013    -0.695221468301179
    H               -0.999584801337155    -2.310524102326987     0.357362531698821
    H               -2.814034801337155    -2.221502102326987     0.188474531698821
    C                2.396315198662844     1.044108897673013     0.698778531698821
    C                1.410315198662845     0.479108897673013    -0.272221468301179
    O                1.476315198662845    -0.728891102326987    -0.523221468301179
    O                0.531315198662845     1.268108897673013    -0.756221468301179
    H                1.919315198662845     0.987108897673013     1.679778531698821
    H                2.537315198662845     2.111108897673013     0.528778531698821
    H                3.346965198662844     0.500075897673013     0.800256531698821

}
e, wfn = energy('scf', return_wfn=True)
gdma(wfn)
dmavals = variable('DMA DISTRIBUTED MULTIPOLES')
charges = np.array(dmavals)
print(charges)
np.save('SSI-053SER-089GLU-1-dimer.npy', np.array(charges))--------------------------------------------------------------------------

*** tstart() called on ds3
*** at Tue Apr 28 03:49:45 2020

   => Loading Basis Set <=

    Name: CC-PVDZ
    Role: ORBITAL
    Keyword: BASIS
    atoms 1-2, 10-11 entry C          line   138 file /theoryfs2/ds/metcalf/miniconda2/envs/tf2gpu/share/psi4/basis/cc-pvdz.gbs 
    atoms 3, 12-13   entry O          line   198 file /theoryfs2/ds/metcalf/miniconda2/envs/tf2gpu/share/psi4/basis/cc-pvdz.gbs 
    atoms 4-9, 14-16 entry H          line    22 file /theoryfs2/ds/metcalf/miniconda2/envs/tf2gpu/share/psi4/basis/cc-pvdz.gbs 


         ---------------------------------------------------------
                                   SCF
               by Justin Turney, Rob Parrish, Andy Simmonett
                          and Daniel G. A. Smith
                              RHF Reference
                        1 Threads,    500 MiB Core
         ---------------------------------------------------------

  ==> Geometry <==

    Molecular point group: c1
    Full point group: C1

    Geometry (in Angstrom), charge = -1, multiplicity = 1:

       Center              X                  Y                   Z               Mass       
    ------------   -----------------  -----------------  -----------------  -----------------
         C           -1.871684801337    -0.355891102327     0.731778531699    12.000000000000
         C           -1.930684801337    -1.866891102327     0.739778531699    12.000000000000
         O           -1.836684801337     0.144108897673    -0.595221468301    15.994914619570
         H           -2.755684801337     0.037108897673     1.236778531699     1.007825032230
         H           -0.986684801337    -0.020891102327     1.274778531699     1.007825032230
         H           -2.058684801337    -2.171891102327     1.780778531699     1.007825032230
         H           -0.952684801337     0.574108897673    -0.695221468301     1.007825032230
         H           -0.999584801337    -2.310524102327     0.357362531699     1.007825032230
         H           -2.814034801337    -2.221502102327     0.188474531699     1.007825032230
         C            2.396315198663     1.044108897673     0.698778531699    12.000000000000
         C            1.410315198663     0.479108897673    -0.272221468301    12.000000000000
         O            1.476315198663    -0.728891102327    -0.523221468301    15.994914619570
         O            0.531315198663     1.268108897673    -0.756221468301    15.994914619570
         H            1.919315198663     0.987108897673     1.679778531699     1.007825032230
         H            2.537315198663     2.111108897673     0.528778531699     1.007825032230
         H            3.346965198663     0.500075897673     0.800256531699     1.007825032230

  Running in c1 symmetry.

  Rotational constants: A =      0.13964  B =      0.04204  C =      0.03814 [cm^-1]
  Rotational constants: A =   4186.40177  B =   1260.43265  C =   1143.54164 [MHz]
  Nuclear repulsion =  308.654626728669768

  Charge       = -1
  Multiplicity = 1
  Electrons    = 58
  Nalpha       = 29
  Nbeta        = 29

  ==> Algorithm <==

  SCF Algorithm Type is PK.
  DIIS enabled.
  MOM disabled.
  Fractional occupation disabled.
  Guess Type is SAD.
  Energy threshold   = 1.00e-06
  Density threshold  = 1.00e-10
  Integral threshold = 0.00e+00

  ==> Primary Basis <==

  Basis Set: CC-PVDZ
    Blend: CC-PVDZ
    Number of shells: 69
    Number of basis function: 143
    Number of Cartesian functions: 150
    Spherical Harmonics?: true
    Max angular momentum: 2

  ==> Pre-Iterations <==

   -------------------------------------------------------
    Irrep   Nso     Nmo     Nalpha   Nbeta   Ndocc  Nsocc
   -------------------------------------------------------
     A        143     143       0       0       0       0
   -------------------------------------------------------
    Total     143     143      29      29      29       0
   -------------------------------------------------------

  ==> Integral Setup <==

  Using integral reordering PK algorithm.
  Sizing the integral batches needed.
  Building batch lookup table.
   Calculation information:
      Number of atoms:                  16
      Number of AO shells:              69
      Number of primitives:            199
      Number of atomic orbitals:       150
      Number of basis functions:       143

      Integral cutoff                 1.00e-12
      Number of threads:                 1

	Batch   1 pq = [       0,    9405] index = [             0,44231715] size =     44231715
	Batch   2 pq = [    9405,   10296] index = [      44231715,53008956] size =      8777241
  Task number: 5
  Buffer size: 11059200
  Buffer per thread: 2
  We computed 2612470 shell quartets total.
  Whereas there are 2917320 unique shell quartets.

  ==> DiskJK: Disk-Based J/K Matrices <==

    J tasked:                  Yes
    K tasked:                  Yes
    wK tasked:                  No
    Memory [MiB]:              375
    Schwarz Cutoff:          1E-12

    OpenMP threads:              1

  Minimum eigenvalue in the overlap matrix is 4.8981004643E-03.
  Using Symmetric Orthogonalization.

  SCF Guess: Superposition of Atomic Densities via on-the-fly atomic UHF.

  ==> Iterations <==

                        Total Energy        Delta E     RMS |[F,P]|

   @RHF iter SAD:  -379.73889509215644   -3.79739e+02   0.00000e+00 
   @RHF iter   1:  -381.08246352529858   -1.34357e+00   5.23947e-03 DIIS
   @RHF iter   2:  -381.28987266278534   -2.07409e-01   2.93339e-03 DIIS
   @RHF iter   3:  -381.35294195399445   -6.30693e-02   4.39827e-04 DIIS
   @RHF iter   4:  -381.35561972673139   -2.67777e-03   1.67741e-04 DIIS
   @RHF iter   5:  -381.35600389339226   -3.84167e-04   3.21536e-05 DIIS
   @RHF iter   6:  -381.35601993249281   -1.60391e-05   1.50891e-05 DIIS
   @RHF iter   7:  -381.35602252886429   -2.59637e-06   3.58049e-06 DIIS
   @RHF iter   8:  -381.35602288256092   -3.53697e-07   1.70612e-06 DIIS
   @RHF iter   9:  -381.35602295011887   -6.75579e-08   6.97814e-07 DIIS
   @RHF iter  10:  -381.35602296453055   -1.44117e-08   2.24262e-07 DIIS
   @RHF iter  11:  -381.35602296603116   -1.50061e-09   7.00314e-08 DIIS
   @RHF iter  12:  -381.35602296613649   -1.05331e-10   1.93490e-08 DIIS
   @RHF iter  13:  -381.35602296614508   -8.58336e-12   4.22823e-09 DIIS
   @RHF iter  14:  -381.35602296614741   -2.33058e-12   1.25724e-09 DIIS
   @RHF iter  15:  -381.35602296614780   -3.97904e-13   4.76900e-10 DIIS
   @RHF iter  16:  -381.35602296614729    5.11591e-13   2.00288e-10 DIIS
   @RHF iter  17:  -381.35602296614871   -1.42109e-12   8.18673e-11 DIIS
  Energy and wave function converged.


  ==> Post-Iterations <==

    Orbital Energies [Eh]
    ---------------------

    Doubly Occupied:                                                      

       1A    -20.345217     2A    -20.291115     3A    -20.291068  
       4A    -11.144352     5A    -11.114508     6A    -11.077393  
       7A    -11.066914     8A     -1.181783     9A     -1.153655  
      10A     -1.068086    11A     -0.858038    12A     -0.821241  
      13A     -0.674730    14A     -0.542135    15A     -0.512539  
      16A     -0.469125    17A     -0.435826    18A     -0.433048  
      19A     -0.426117    20A     -0.401256    21A     -0.398520  
      22A     -0.368202    23A     -0.360543    24A     -0.324316  
      25A     -0.307463    26A     -0.253044    27A     -0.212503  
      28A     -0.203490    29A     -0.194985  

    Virtual:                                                              

      30A      0.319447    31A      0.337800    32A      0.372503  
      33A      0.376166    34A      0.388351    35A      0.400715  
      36A      0.423527    37A      0.429472    38A      0.484460  
      39A      0.506255    40A      0.547618    41A      0.561712  
      42A      0.618990    43A      0.675329    44A      0.720879  
      45A      0.754246    46A      0.772139    47A      0.783573  
      48A      0.811593    49A      0.880175    50A      0.894914  
      51A      0.903131    52A      0.948811    53A      0.973019  
      54A      0.983047    55A      1.004669    56A      1.015782  
      57A      1.018616    58A      1.024528    59A      1.031150  
      60A      1.052144    61A      1.064540    62A      1.069325  
      63A      1.100344    64A      1.114663    65A      1.128011  
      66A      1.205446    67A      1.281719    68A      1.294813  
      69A      1.324705    70A      1.336959    71A      1.362716  
      72A      1.409946    73A      1.485514    74A      1.500377  
      75A      1.541439    76A      1.551523    77A      1.589880  
      78A      1.593046    79A      1.631400    80A      1.647664  
      81A      1.656201    82A      1.707430    83A      1.721849  
      84A      1.753242    85A      1.812263    86A      1.820209  
      87A      1.829271    88A      1.859912    89A      1.901511  
      90A      1.947115    91A      2.013150    92A      2.016156  
      93A      2.042772    94A      2.046687    95A      2.064102  
      96A      2.098892    97A      2.107247    98A      2.109023  
      99A      2.127223   100A      2.130868   101A      2.160302  
     102A      2.180831   103A      2.214213   104A      2.241208  
     105A      2.256330   106A      2.318351   107A      2.388539  
     108A      2.406580   109A      2.419685   110A      2.442624  
     111A      2.479682   112A      2.515555   113A      2.548861  
     114A      2.627414   115A      2.652756   116A      2.681057  
     117A      2.692786   118A      2.696808   119A      2.744713  
     120A      2.860078   121A      2.899835   122A      2.908043  
     123A      2.924016   124A      2.961207   125A      2.976751  
     126A      2.987688   127A      3.046362   128A      3.083680  
     129A      3.235383   130A      3.242766   131A      3.329190  
     132A      3.495549   133A      3.518684   134A      3.585593  
     135A      3.608817   136A      3.676005   137A      3.779987  
     138A      3.822550   139A      3.830392   140A      4.030160  
     141A      4.080198   142A      4.173239   143A      4.378058  

    Final Occupation by Irrep:
              A 
    DOCC [    29 ]

  @RHF Final Energy:  -381.35602296614871

   => Energetics <=

    Nuclear Repulsion Energy =            308.6546267286697685
    One-Electron Energy =               -1146.1588716517696867
    Two-Electron Energy =                 456.1482219569512040
    Total Energy =                       -381.3560229661487142

Computation Completed


Properties will be evaluated at   0.000000,   0.000000,   0.000000 [a0]

Properties computed using the SCF density matrix

  Nuclear Dipole Moment: [e a0]
     X:    -2.5901      Y:    -2.3547      Z:     6.6956

  Electronic Dipole Moment: [e a0]
     X:     2.3594      Y:     2.2290      Z:    -5.1026

  Dipole Moment: [e a0]
     X:    -0.2308      Y:    -0.1257      Z:     1.5930     Total:     1.6145

  Dipole Moment: [D]
     X:    -0.5865      Y:    -0.3195      Z:     4.0490     Total:     4.1037


*** tstop() called on ds3 at Tue Apr 28 03:50:12 2020
Module time:
	user time   =      19.63 seconds =       0.33 minutes
	system time =       7.58 seconds =       0.13 minutes
	total time  =         27 seconds =       0.45 minutes
Total time:
	user time   =      19.63 seconds =       0.33 minutes
	system time =       7.58 seconds =       0.13 minutes
	total time  =         27 seconds =       0.45 minutes
                                     G D M A

                                 by Anthony Stone

                           version 2.2.06, 22 June 2011

               Distributed Multipoles from Gaussian wavefunctions


Starting at 3:50:12 on 28 Apr 2020  


Using SCF density matrix from file ./SSI/SSI-053SER-089GLU-1-dimer.test.25381.fchk


                         Distributed Multipole Analysis

Standard DMA

Positions and radii in angstrom
Multipole moments in atomic units, ea_0^k for rank k

C          x = -1.871685  y = -0.355891  z =  0.731779 angstrom
           Maximum rank =  0   Radius =  0.650 angstrom
                   Q00  =   0.186786

C          x = -1.930685  y = -1.866891  z =  0.739779 angstrom
           Maximum rank =  0   Radius =  0.650 angstrom
                   Q00  =  -0.243362

O          x = -1.836685  y =  0.144109  z = -0.595221 angstrom
           Maximum rank =  0   Radius =  0.650 angstrom
                   Q00  =  -0.729958

H          x = -2.755685  y =  0.037109  z =  1.236779 angstrom
           Maximum rank =  0   Radius =  0.325 angstrom
                   Q00  =  -0.008171

H          x = -0.986685  y = -0.020891  z =  1.274779 angstrom
           Maximum rank =  0   Radius =  0.325 angstrom
                   Q00  =   0.026813

H          x = -2.058685  y = -2.171891  z =  1.780779 angstrom
           Maximum rank =  0   Radius =  0.325 angstrom
                   Q00  =   0.022482

H          x = -0.952685  y =  0.574109  z = -0.695221 angstrom
           Maximum rank =  0   Radius =  0.325 angstrom
                   Q00  =   0.552432

H          x = -0.999585  y = -2.310524  z =  0.357363 angstrom
           Maximum rank =  0   Radius =  0.325 angstrom
                   Q00  =   0.104423

H          x = -2.814035  y = -2.221502  z =  0.188475 angstrom
           Maximum rank =  0   Radius =  0.325 angstrom
                   Q00  =   0.057167

C          x =  2.396315  y =  1.044109  z =  0.698779 angstrom
           Maximum rank =  0   Radius =  0.650 angstrom
                   Q00  =  -0.264654

C          x =  1.410315  y =  0.479109  z = -0.272221 angstrom
           Maximum rank =  0   Radius =  0.650 angstrom
                   Q00  =   0.924015

O          x =  1.476315  y = -0.728891  z = -0.523221 angstrom
           Maximum rank =  0   Radius =  0.650 angstrom
                   Q00  =  -0.872317

O          x =  0.531315  y =  1.268109  z = -0.756221 angstrom
           Maximum rank =  0   Radius =  0.650 angstrom
                   Q00  =  -0.962596

H          x =  1.919315  y =  0.987109  z =  1.679779 angstrom
           Maximum rank =  0   Radius =  0.325 angstrom
                   Q00  =   0.080120

H          x =  2.537315  y =  2.111109  z =  0.528779 angstrom
           Maximum rank =  0   Radius =  0.325 angstrom
                   Q00  =   0.064318

H          x =  3.346965  y =  0.500076  z =  0.800257 angstrom
           Maximum rank =  0   Radius =  0.325 angstrom
                   Q00  =   0.062503

Total multipoles referred to origin at
           x =   0.000000,  y =    0.000000,  z =    0.000000 angstrom
                   Q00  =  -1.000000

Finished at 3:50:12 on 28 Apr 2020  

  DMA results are available in the Python driver through the
	  variable('DMA DISTRIBUTED MULTIPOLES')
  and
	  variable('DMA TOTAL MULTIPOLES')
  commands.


    Psi4 stopped on: Tuesday, 28 April 2020 03:50AM
    Psi4 wall time for execution: 0:00:27.04

*** Psi4 exiting successfully. Buy a developer a beer!
