
    -----------------------------------------------------------------------
          Psi4: An Open-Source Ab Initio Electronic Structure Package
                               Psi4 1.3.2 release

                         Git: Rev {HEAD} ecbda83 


    R. M. Parrish, L. A. Burns, D. G. A. Smith, A. C. Simmonett,
    A. E. DePrince III, E. G. Hohenstein, U. Bozkaya, A. Yu. Sokolov,
    R. Di Remigio, R. M. Richard, J. F. Gonthier, A. M. James,
    H. R. McAlexander, A. Kumar, M. Saitow, X. Wang, B. P. Pritchard,
    P. Verma, H. F. Schaefer III, K. Patkowski, R. A. King, E. F. Valeev,
    F. A. Evangelista, J. M. Turney, T. D. Crawford, and C. D. Sherrill,
    J. Chem. Theory Comput. 13(7) pp 3185--3197 (2017).
    (doi: 10.1021/acs.jctc.7b00174)


                         Additional Contributions by
    P. Kraus, H. Kruse, M. H. Lechner, M. C. Schieber, R. A. Shaw,
    A. Alenaizan, R. Galvelis, Z. L. Glick, S. Lehtola, and J. P. Misiewicz

    -----------------------------------------------------------------------


    Psi4 started on: Tuesday, 28 April 2020 09:08AM

    Process ID: 9645
    Host:       ds3
    PSIDATADIR: /theoryfs2/ds/metcalf/miniconda2/envs/tf2gpu/share/psi4
    Memory:     500.0 MiB
    Threads:    1
    
  ==> Input File <==

--------------------------------------------------------------------------
import numpy as np
set {scf_type pk
basis cc-pvdz
d_convergence 10
gdma_switch   0
gdma_limit    0
gdma_origin   [ 0.0,  0.0,  0.0 ]
}
molecule test {
    units Angstrom
    0 1
    --
    0 1
    C               -5.412902921585766    -1.669212219406335     1.329282303173403
    C               -1.266902921585766    -1.082212219406335     0.225282303173403
    C               -2.298902921585765    -0.559212219406335    -0.559717696826596
    C               -1.602902921585766    -1.768212219406335     1.390282303173404
    C               -3.635902921585765    -0.748212219406335    -0.224717696826597
    C               -2.941902921585765    -1.948212219406335     1.744282303173404
    C               -3.975902921585766    -1.447212219406335     0.939282303173404
    H               -0.232902921585766    -0.952212219406335    -0.062717696826597
    H               -2.046902921585765    -0.017212219406335    -1.459717696826596
    H               -0.821902921585766    -2.175212219406335     2.016282303173404
    H               -4.408902921585766    -0.343212219406335    -0.862717696826597
    H               -3.175902921585765    -2.493212219406335     2.634282303173404
    H               -5.995902921585766    -0.780212219406335     1.090282303173404
    H               -5.350902921585766    -1.732212219406335     2.386282303173403
    H               -5.863262921585766    -2.545694219406335     0.840452303173403
    C                0.757097078414234     1.699787780593665     1.345282303173404
    C                1.677097078414234     2.663787780593665     2.156282303173403
    C                1.582097078414234     1.186787780593665     0.189282303173403
    C                1.599097078414234     1.934787780593665    -0.995717696826597
    C                2.361097078414235     0.038787780593665     0.319282303173403
    C                2.354097078414235     1.527787780593665    -2.086717696826597
    C                3.143097078414235    -0.374212219406335    -0.762717696826597
    C                3.122097078414235     0.377787780593665    -1.947717696826596
    O                3.917097078414235    -0.065212219406335    -2.944717696826597
    H                0.421097078414234     0.873787780593665     1.974282303173404
    H               -0.124902921585766     2.190787780593665     0.935282303173404
    H                2.297097078414235     3.212787780593665     1.446282303173404
    H                0.992097078414234     2.829787780593665    -1.068717696826596
    H                2.358097078414235    -0.528212219406335     1.239282303173403
    H                2.328097078414235     2.092787780593665    -3.000717696826597
    H                3.752097078414235    -1.264212219406335    -0.673717696826597
    H                4.386097078414235    -0.860212219406335    -2.673717696826597
    H                2.311257078414235     2.100437780593665     2.856622303173403
    H                1.059947078414234     3.417027780593665     2.667902303173403

}
e, wfn = energy('scf', return_wfn=True)
gdma(wfn)
dmavals = variable('DMA DISTRIBUTED MULTIPOLES')
charges = np.array(dmavals)
print(charges)
np.save('SSI-031PHE-095TYR-1-dimer.npy', np.array(charges))--------------------------------------------------------------------------

*** tstart() called on ds3
*** at Tue Apr 28 09:08:37 2020

   => Loading Basis Set <=

    Name: CC-PVDZ
    Role: ORBITAL
    Keyword: BASIS
    atoms 1-7, 16-23  entry C          line   138 file /theoryfs2/ds/metcalf/miniconda2/envs/tf2gpu/share/psi4/basis/cc-pvdz.gbs 
    atoms 8-15, 25-34 entry H          line    22 file /theoryfs2/ds/metcalf/miniconda2/envs/tf2gpu/share/psi4/basis/cc-pvdz.gbs 
    atoms 24          entry O          line   198 file /theoryfs2/ds/metcalf/miniconda2/envs/tf2gpu/share/psi4/basis/cc-pvdz.gbs 


         ---------------------------------------------------------
                                   SCF
               by Justin Turney, Rob Parrish, Andy Simmonett
                          and Daniel G. A. Smith
                              RHF Reference
                        1 Threads,    500 MiB Core
         ---------------------------------------------------------

  ==> Geometry <==

    Molecular point group: c1
    Full point group: C1

    Geometry (in Angstrom), charge = 0, multiplicity = 1:

       Center              X                  Y                   Z               Mass       
    ------------   -----------------  -----------------  -----------------  -----------------
         C           -5.412902921586    -1.669212219406     1.329282303173    12.000000000000
         C           -1.266902921586    -1.082212219406     0.225282303173    12.000000000000
         C           -2.298902921586    -0.559212219406    -0.559717696827    12.000000000000
         C           -1.602902921586    -1.768212219406     1.390282303173    12.000000000000
         C           -3.635902921586    -0.748212219406    -0.224717696827    12.000000000000
         C           -2.941902921586    -1.948212219406     1.744282303173    12.000000000000
         C           -3.975902921586    -1.447212219406     0.939282303173    12.000000000000
         H           -0.232902921586    -0.952212219406    -0.062717696827     1.007825032230
         H           -2.046902921586    -0.017212219406    -1.459717696827     1.007825032230
         H           -0.821902921586    -2.175212219406     2.016282303173     1.007825032230
         H           -4.408902921586    -0.343212219406    -0.862717696827     1.007825032230
         H           -3.175902921586    -2.493212219406     2.634282303173     1.007825032230
         H           -5.995902921586    -0.780212219406     1.090282303173     1.007825032230
         H           -5.350902921586    -1.732212219406     2.386282303173     1.007825032230
         H           -5.863262921586    -2.545694219406     0.840452303173     1.007825032230
         C            0.757097078414     1.699787780594     1.345282303173    12.000000000000
         C            1.677097078414     2.663787780594     2.156282303173    12.000000000000
         C            1.582097078414     1.186787780594     0.189282303173    12.000000000000
         C            1.599097078414     1.934787780594    -0.995717696827    12.000000000000
         C            2.361097078414     0.038787780594     0.319282303173    12.000000000000
         C            2.354097078414     1.527787780594    -2.086717696827    12.000000000000
         C            3.143097078414    -0.374212219406    -0.762717696827    12.000000000000
         C            3.122097078414     0.377787780594    -1.947717696827    12.000000000000
         O            3.917097078414    -0.065212219406    -2.944717696827    15.994914619570
         H            0.421097078414     0.873787780594     1.974282303173     1.007825032230
         H           -0.124902921586     2.190787780594     0.935282303173     1.007825032230
         H            2.297097078414     3.212787780594     1.446282303173     1.007825032230
         H            0.992097078414     2.829787780594    -1.068717696827     1.007825032230
         H            2.358097078414    -0.528212219406     1.239282303173     1.007825032230
         H            2.328097078414     2.092787780594    -3.000717696827     1.007825032230
         H            3.752097078414    -1.264212219406    -0.673717696827     1.007825032230
         H            4.386097078414    -0.860212219406    -2.673717696827     1.007825032230
         H            2.311257078414     2.100437780594     2.856622303173     1.007825032230
         H            1.059947078414     3.417027780594     2.667902303173     1.007825032230

  Running in c1 symmetry.

  Rotational constants: A =      0.02918  B =      0.00712  C =      0.00651 [cm^-1]
  Rotational constants: A =    874.72126  B =    213.44336  C =    195.03734 [MHz]
  Nuclear repulsion =  980.451572002875764

  Charge       = 0
  Multiplicity = 1
  Electrons    = 116
  Nalpha       = 58
  Nbeta        = 58

  ==> Algorithm <==

  SCF Algorithm Type is PK.
  DIIS enabled.
  MOM disabled.
  Fractional occupation disabled.
  Guess Type is SAD.
  Energy threshold   = 1.00e-06
  Density threshold  = 1.00e-10
  Integral threshold = 0.00e+00

  ==> Primary Basis <==

  Basis Set: CC-PVDZ
    Blend: CC-PVDZ
    Number of shells: 150
    Number of basis function: 314
    Number of Cartesian functions: 330
    Spherical Harmonics?: true
    Max angular momentum: 2

  ==> Pre-Iterations <==

   -------------------------------------------------------
    Irrep   Nso     Nmo     Nalpha   Nbeta   Ndocc  Nsocc
   -------------------------------------------------------
     A        314     314       0       0       0       0
   -------------------------------------------------------
    Total     314     314      58      58      58       0
   -------------------------------------------------------

  ==> Integral Setup <==

  Using integral reordering PK algorithm.
  Sizing the integral batches needed.
  Building batch lookup table.
   Calculation information:
      Number of atoms:                  34
      Number of AO shells:             150
      Number of primitives:            442
      Number of atomic orbitals:       330
      Number of basis functions:       314

      Integral cutoff                 1.00e-12
      Number of threads:                 1

	Batch   1 pq = [       0,    9405] index = [             0,44231715] size =     44231715
	Batch   2 pq = [    9405,   13301] index = [      44231715,88464951] size =     44233236
	Batch   3 pq = [   13301,   16290] index = [      88464951,132690195] size =     44225244
	Batch   4 pq = [   16290,   18810] index = [     132690195,176917455] size =     44227260
	Batch   5 pq = [   18810,   21030] index = [     176917455,221140965] size =     44223510
	Batch   6 pq = [   21030,   23037] index = [     221140965,265363203] size =     44222238
	Batch   7 pq = [   23037,   24883] index = [     265363203,309594286] size =     44231083
	Batch   8 pq = [   24883,   26601] index = [     309594286,353819901] size =     44225615
	Batch   9 pq = [   26601,   28214] index = [     353819901,398029005] size =     44209104
	Batch  10 pq = [   28214,   29740] index = [     398029005,442248670] size =     44219665
	Batch  11 pq = [   29740,   31191] index = [     442248670,486454836] size =     44206166
	Batch  12 pq = [   31191,   32578] index = [     486454836,530679331] size =     44224495
	Batch  13 pq = [   32578,   33908] index = [     530679331,574893186] size =     44213855
	Batch  14 pq = [   33908,   35188] index = [     574893186,619115266] size =     44222080
	Batch  15 pq = [   35188,   36423] index = [     619115266,663335676] size =     44220410
	Batch  16 pq = [   36423,   37617] index = [     663335676,707538153] size =     44202477
	Batch  17 pq = [   37617,   38775] index = [     707538153,751769700] size =     44231547
	Batch  18 pq = [   38775,   39899] index = [     751769700,795985050] size =     44215350
	Batch  19 pq = [   39899,   40992] index = [     795985050,840192528] size =     44207478
	Batch  20 pq = [   40992,   42057] index = [     840192528,884416653] size =     44224125
	Batch  21 pq = [   42057,   43095] index = [     884416653,928611060] size =     44194407
	Batch  22 pq = [   43095,   44109] index = [     928611060,972823995] size =     44212935
	Batch  23 pq = [   44109,   45100] index = [     972823995,1017027550] size =     44203555
	Batch  24 pq = [   45100,   46070] index = [    1017027550,1061245485] size =     44217935
	Batch  25 pq = [   46070,   47020] index = [    1061245485,1105463710] size =     44218225
	Batch  26 pq = [   47020,   47951] index = [    1105463710,1149673176] size =     44209466
	Batch  27 pq = [   47951,   48864] index = [    1149673176,1193869680] size =     44196504
	Batch  28 pq = [   48864,   49455] index = [    1193869680,1222923240] size =     29053560
  Task number: 111
  Buffer size: 11059200
  Buffer per thread: 2
  We computed 60114316 shell quartets total.
  Whereas there are 64133475 unique shell quartets.

  ==> DiskJK: Disk-Based J/K Matrices <==

    J tasked:                  Yes
    K tasked:                  Yes
    wK tasked:                  No
    Memory [MiB]:              375
    Schwarz Cutoff:          1E-12

    OpenMP threads:              1

  Minimum eigenvalue in the overlap matrix is 3.0933143195E-04.
  Using Symmetric Orthogonalization.

  SCF Guess: Superposition of Atomic Densities via on-the-fly atomic UHF.

  ==> Iterations <==

                        Total Energy        Delta E     RMS |[F,P]|

   @RHF iter SAD:  -652.18975808318203   -6.52190e+02   0.00000e+00 
   @RHF iter   1:  -653.06187952241930   -8.72121e-01   2.27083e-03 DIIS
   @RHF iter   2:  -653.35795769601918   -2.96078e-01   9.42501e-04 DIIS
   @RHF iter   3:  -653.40288865582295   -4.49310e-02   2.31079e-04 DIIS
   @RHF iter   4:  -653.40687346430491   -3.98481e-03   9.36448e-05 DIIS
   @RHF iter   5:  -653.40737609747180   -5.02633e-04   1.63367e-05 DIIS
   @RHF iter   6:  -653.40739919069347   -2.30932e-05   5.44434e-06 DIIS
   @RHF iter   7:  -653.40740155763126   -2.36694e-06   1.58834e-06 DIIS
   @RHF iter   8:  -653.40740184147296   -2.83842e-07   6.43830e-07 DIIS
   @RHF iter   9:  -653.40740188447035   -4.29974e-08   2.13328e-07 DIIS
   @RHF iter  10:  -653.40740189073676   -6.26642e-09   7.69051e-08 DIIS
   @RHF iter  11:  -653.40740189207872   -1.34196e-09   3.89957e-08 DIIS
   @RHF iter  12:  -653.40740189245821   -3.79487e-10   1.86511e-08 DIIS
   @RHF iter  13:  -653.40740189257076   -1.12550e-10   6.61477e-09 DIIS
   @RHF iter  14:  -653.40740189258599   -1.52340e-11   1.91866e-09 DIIS
   @RHF iter  15:  -653.40740189258554    4.54747e-13   6.12543e-10 DIIS
   @RHF iter  16:  -653.40740189258406    1.47793e-12   2.71994e-10 DIIS
   @RHF iter  17:  -653.40740189258690   -2.84217e-12   1.19453e-10 DIIS
   @RHF iter  18:  -653.40740189258156    5.34328e-12   5.85381e-11 DIIS
  Energy and wave function converged.


  ==> Post-Iterations <==

    Orbital Energies [Eh]
    ---------------------

    Doubly Occupied:                                                      

       1A    -20.580689     2A    -11.300462     3A    -11.240298  
       4A    -11.238933     5A    -11.238693     6A    -11.235183  
       7A    -11.232797     8A    -11.232272     9A    -11.231037  
      10A    -11.229445    11A    -11.227705    12A    -11.227435  
      13A    -11.225996    14A    -11.225358    15A    -11.224934  
      16A    -11.220697    17A     -1.405760    18A     -1.151696  
      19A     -1.146661    20A     -1.053516    21A     -1.042035  
      22A     -1.021868    23A     -1.006847    24A     -0.965795  
      25A     -0.930402    26A     -0.859133    27A     -0.844566  
      28A     -0.820259    29A     -0.794159    30A     -0.790999  
      31A     -0.732231    32A     -0.686838    33A     -0.671598  
      34A     -0.648257    35A     -0.629276    36A     -0.626251  
      37A     -0.613456    38A     -0.599809    39A     -0.588917  
      40A     -0.585277    41A     -0.582532    42A     -0.577367  
      43A     -0.563478    44A     -0.558322    45A     -0.543804  
      46A     -0.534760    47A     -0.513643    48A     -0.499513  
      49A     -0.484072    50A     -0.482135    51A     -0.478780  
      52A     -0.476123    53A     -0.470914    54A     -0.456925  
      55A     -0.342267    56A     -0.328486    57A     -0.316982  
      58A     -0.295769  

    Virtual:                                                              

      59A      0.124813    60A      0.137365    61A      0.141947  
      62A      0.156072    63A      0.173833    64A      0.181307  
      65A      0.192800    66A      0.200617    67A      0.213307  
      68A      0.218553    69A      0.228554    70A      0.242079  
      71A      0.249522    72A      0.259106    73A      0.261736  
      74A      0.267738    75A      0.274334    76A      0.287273  
      77A      0.290572    78A      0.299744    79A      0.307206  
      80A      0.319712    81A      0.346336    82A      0.368524  
      83A      0.375011    84A      0.381074    85A      0.411662  
      86A      0.427085    87A      0.452643    88A      0.465570  
      89A      0.468438    90A      0.480597    91A      0.481126  
      92A      0.492028    93A      0.497129    94A      0.508406  
      95A      0.561724    96A      0.590196    97A      0.596301  
      98A      0.611531    99A      0.633070   100A      0.641467  
     101A      0.649551   102A      0.662286   103A      0.673021  
     104A      0.680995   105A      0.683318   106A      0.699670  
     107A      0.707712   108A      0.710130   109A      0.718622  
     110A      0.725993   111A      0.731627   112A      0.734288  
     113A      0.741013   114A      0.742920   115A      0.748080  
     116A      0.751105   117A      0.756241   118A      0.763706  
     119A      0.767220   120A      0.778011   121A      0.796669  
     122A      0.807589   123A      0.820384   124A      0.831773  
     125A      0.833594   126A      0.846524   127A      0.851846  
     128A      0.866285   129A      0.870161   130A      0.878572  
     131A      0.882725   132A      0.883915   133A      0.890242  
     134A      0.896865   135A      0.900269   136A      0.906512  
     137A      0.909183   138A      0.914164   139A      0.927787  
     140A      0.930846   141A      0.936484   142A      0.941213  
     143A      0.949552   144A      0.952181   145A      0.960831  
     146A      0.979271   147A      0.986113   148A      1.006657  
     149A      1.020050   150A      1.025662   151A      1.029038  
     152A      1.048991   153A      1.062308   154A      1.083271  
     155A      1.115854   156A      1.137698   157A      1.144357  
     158A      1.152801   159A      1.153588   160A      1.159904  
     161A      1.174680   162A      1.186432   163A      1.197045  
     164A      1.208206   165A      1.230618   166A      1.240967  
     167A      1.248191   168A      1.254027   169A      1.255268  
     170A      1.265523   171A      1.282251   172A      1.283888  
     173A      1.296033   174A      1.299703   175A      1.304105  
     176A      1.312665   177A      1.319187   178A      1.326715  
     179A      1.343000   180A      1.359538   181A      1.365440  
     182A      1.386227   183A      1.414793   184A      1.424157  
     185A      1.435266   186A      1.479023   187A      1.518072  
     188A      1.520444   189A      1.531577   190A      1.538938  
     191A      1.564504   192A      1.601129   193A      1.618774  
     194A      1.628878   195A      1.634027   196A      1.672953  
     197A      1.680140   198A      1.704071   199A      1.710601  
     200A      1.729077   201A      1.732155   202A      1.746878  
     203A      1.756248   204A      1.763406   205A      1.779713  
     206A      1.783455   207A      1.795083   208A      1.806997  
     209A      1.841076   210A      1.855883   211A      1.859940  
     212A      1.872674   213A      1.874585   214A      1.878278  
     215A      1.886063   216A      1.893314   217A      1.895225  
     218A      1.905107   219A      1.910787   220A      1.917715  
     221A      1.924270   222A      1.930895   223A      1.933796  
     224A      1.946293   225A      1.948917   226A      1.955900  
     227A      1.966278   228A      1.973819   229A      1.982262  
     230A      1.987322   231A      1.990601   232A      1.997350  
     233A      2.008827   234A      2.027897   235A      2.032163  
     236A      2.049997   237A      2.064742   238A      2.068417  
     239A      2.073630   240A      2.074709   241A      2.079035  
     242A      2.090132   243A      2.096767   244A      2.125378  
     245A      2.133281   246A      2.145560   247A      2.148698  
     248A      2.164923   249A      2.168042   250A      2.171130  
     251A      2.183035   252A      2.195287   253A      2.204618  
     254A      2.234142   255A      2.241638   256A      2.262646  
     257A      2.267487   258A      2.278173   259A      2.283725  
     260A      2.289924   261A      2.316888   262A      2.324461  
     263A      2.331370   264A      2.354311   265A      2.362574  
     266A      2.387781   267A      2.445196   268A      2.454775  
     269A      2.471707   270A      2.474646   271A      2.481313  
     272A      2.486713   273A      2.492499   274A      2.508579  
     275A      2.522745   276A      2.538266   277A      2.542728  
     278A      2.573460   279A      2.630341   280A      2.647787  
     281A      2.659009   282A      2.741274   283A      2.756486  
     284A      2.761708   285A      2.778983   286A      2.781333  
     287A      2.798582   288A      2.803982   289A      2.816333  
     290A      2.821445   291A      2.847164   292A      2.858411  
     293A      2.864829   294A      2.891615   295A      2.910659  
     296A      2.963627   297A      2.972707   298A      2.989587  
     299A      3.002092   300A      3.011638   301A      3.035684  
     302A      3.097589   303A      3.139659   304A      3.146934  
     305A      3.206183   306A      3.266022   307A      3.271645  
     308A      3.298040   309A      3.345823   310A      3.592098  
     311A      3.687684   312A      3.961139   313A      3.980855  
     314A      4.191820  

    Final Occupation by Irrep:
              A 
    DOCC [    58 ]

  @RHF Final Energy:  -653.40740189258156

   => Energetics <=

    Nuclear Repulsion Energy =            980.4515720028757642
    One-Electron Energy =               -2832.0511244054036979
    Two-Electron Energy =                1198.1921505099462593
    Total Energy =                       -653.4074018925816745

Computation Completed


Properties will be evaluated at   0.000000,   0.000000,   0.000000 [a0]

Properties computed using the SCF density matrix

  Nuclear Dipole Moment: [e a0]
     X:    -7.5893      Y:     2.8361      Z:     9.6279

  Electronic Dipole Moment: [e a0]
     X:     7.5738      Y:    -3.1312      Z:    -9.2120

  Dipole Moment: [e a0]
     X:    -0.0155      Y:    -0.2951      Z:     0.4159     Total:     0.5102

  Dipole Moment: [D]
     X:    -0.0394      Y:    -0.7501      Z:     1.0571     Total:     1.2967


*** tstop() called on ds3 at Tue Apr 28 09:27:27 2020
Module time:
	user time   =     577.58 seconds =       9.63 minutes
	system time =     213.14 seconds =       3.55 minutes
	total time  =       1130 seconds =      18.83 minutes
Total time:
	user time   =     577.58 seconds =       9.63 minutes
	system time =     213.14 seconds =       3.55 minutes
	total time  =       1130 seconds =      18.83 minutes
                                     G D M A

                                 by Anthony Stone

                           version 2.2.06, 22 June 2011

               Distributed Multipoles from Gaussian wavefunctions


Starting at 9:27:28 on 28 Apr 2020  


Using SCF density matrix from file ./SSI/SSI-031PHE-095TYR-1-dimer.test.9645.fchk


                         Distributed Multipole Analysis

Standard DMA

Positions and radii in angstrom
Multipole moments in atomic units, ea_0^k for rank k

C          x = -5.412903  y = -1.669212  z =  1.329282 angstrom
           Maximum rank =  0   Radius =  0.650 angstrom
                   Q00  =  -0.188991

C          x = -1.266903  y = -1.082212  z =  0.225282 angstrom
           Maximum rank =  0   Radius =  0.650 angstrom
                   Q00  =  -0.089961

C          x = -2.298903  y = -0.559212  z = -0.559718 angstrom
           Maximum rank =  0   Radius =  0.650 angstrom
                   Q00  =   0.017912

C          x = -1.602903  y = -1.768212  z =  1.390282 angstrom
           Maximum rank =  0   Radius =  0.650 angstrom
                   Q00  =  -0.083640

C          x = -3.635903  y = -0.748212  z = -0.224718 angstrom
           Maximum rank =  0   Radius =  0.650 angstrom
                   Q00  =  -0.081614

C          x = -2.941903  y = -1.948212  z =  1.744282 angstrom
           Maximum rank =  0   Radius =  0.650 angstrom
                   Q00  =  -0.070089

C          x = -3.975903  y = -1.447212  z =  0.939282 angstrom
           Maximum rank =  0   Radius =  0.650 angstrom
                   Q00  =  -0.103660

H          x = -0.232903  y = -0.952212  z = -0.062718 angstrom
           Maximum rank =  0   Radius =  0.325 angstrom
                   Q00  =   0.078873

H          x = -2.046903  y = -0.017212  z = -1.459718 angstrom
           Maximum rank =  0   Radius =  0.325 angstrom
                   Q00  =   0.062065

H          x = -0.821903  y = -2.175212  z =  2.016282 angstrom
           Maximum rank =  0   Radius =  0.325 angstrom
                   Q00  =   0.058281

H          x = -4.408903  y = -0.343212  z = -0.862718 angstrom
           Maximum rank =  0   Radius =  0.325 angstrom
                   Q00  =   0.054877

H          x = -3.175903  y = -2.493212  z =  2.634282 angstrom
           Maximum rank =  0   Radius =  0.325 angstrom
                   Q00  =   0.054373

H          x = -5.995903  y = -0.780212  z =  1.090282 angstrom
           Maximum rank =  0   Radius =  0.325 angstrom
                   Q00  =   0.097651

H          x = -5.350903  y = -1.732212  z =  2.386282 angstrom
           Maximum rank =  0   Radius =  0.325 angstrom
                   Q00  =   0.084965

H          x = -5.863263  y = -2.545694  z =  0.840452 angstrom
           Maximum rank =  0   Radius =  0.325 angstrom
                   Q00  =   0.106668

C          x =  0.757097  y =  1.699788  z =  1.345282 angstrom
           Maximum rank =  0   Radius =  0.650 angstrom
                   Q00  =  -0.032419

C          x =  1.677097  y =  2.663788  z =  2.156282 angstrom
           Maximum rank =  0   Radius =  0.650 angstrom
                   Q00  =  -0.238909

C          x =  1.582097  y =  1.186788  z =  0.189282 angstrom
           Maximum rank =  0   Radius =  0.650 angstrom
                   Q00  =  -0.102133

C          x =  1.599097  y =  1.934788  z = -0.995718 angstrom
           Maximum rank =  0   Radius =  0.650 angstrom
                   Q00  =  -0.069893

C          x =  2.361097  y =  0.038788  z =  0.319282 angstrom
           Maximum rank =  0   Radius =  0.650 angstrom
                   Q00  =  -0.078673

C          x =  2.354097  y =  1.527788  z = -2.086718 angstrom
           Maximum rank =  0   Radius =  0.650 angstrom
                   Q00  =  -0.116921

C          x =  3.143097  y = -0.374212  z = -0.762718 angstrom
           Maximum rank =  0   Radius =  0.650 angstrom
                   Q00  =  -0.201195

C          x =  3.122097  y =  0.377788  z = -1.947718 angstrom
           Maximum rank =  0   Radius =  0.650 angstrom
                   Q00  =   0.379372

O          x =  3.917097  y = -0.065212  z = -2.944718 angstrom
           Maximum rank =  0   Radius =  0.650 angstrom
                   Q00  =  -0.624717

H          x =  0.421097  y =  0.873788  z =  1.974282 angstrom
           Maximum rank =  0   Radius =  0.325 angstrom
                   Q00  =   0.072906

H          x = -0.124903  y =  2.190788  z =  0.935282 angstrom
           Maximum rank =  0   Radius =  0.325 angstrom
                   Q00  =   0.073580

H          x =  2.297097  y =  3.212788  z =  1.446282 angstrom
           Maximum rank =  0   Radius =  0.325 angstrom
                   Q00  =   0.082775

H          x =  0.992097  y =  2.829788  z = -1.068718 angstrom
           Maximum rank =  0   Radius =  0.325 angstrom
                   Q00  =   0.064277

H          x =  2.358097  y = -0.528212  z =  1.239282 angstrom
           Maximum rank =  0   Radius =  0.325 angstrom
                   Q00  =   0.070254

H          x =  2.328097  y =  2.092788  z = -3.000718 angstrom
           Maximum rank =  0   Radius =  0.325 angstrom
                   Q00  =   0.083022

H          x =  3.752097  y = -1.264212  z = -0.673718 angstrom
           Maximum rank =  0   Radius =  0.325 angstrom
                   Q00  =   0.069981

H          x =  4.386097  y = -0.860212  z = -2.673718 angstrom
           Maximum rank =  0   Radius =  0.325 angstrom
                   Q00  =   0.406416

H          x =  2.311257  y =  2.100438  z =  2.856622 angstrom
           Maximum rank =  0   Radius =  0.325 angstrom
                   Q00  =   0.086350

H          x =  1.059947  y =  3.417028  z =  2.667902 angstrom
           Maximum rank =  0   Radius =  0.325 angstrom
                   Q00  =   0.078214

Total multipoles referred to origin at
           x =   0.000000,  y =    0.000000,  z =    0.000000 angstrom
                   Q00  =  -0.000000

Finished at 9:27:28 on 28 Apr 2020  

  DMA results are available in the Python driver through the
	  variable('DMA DISTRIBUTED MULTIPOLES')
  and
	  variable('DMA TOTAL MULTIPOLES')
  commands.


    Psi4 stopped on: Tuesday, 28 April 2020 09:27AM
    Psi4 wall time for execution: 0:18:50.95

*** Psi4 exiting successfully. Buy a developer a beer!
