
    -----------------------------------------------------------------------
          Psi4: An Open-Source Ab Initio Electronic Structure Package
                               Psi4 1.3.2 release

                         Git: Rev {HEAD} ecbda83 


    R. M. Parrish, L. A. Burns, D. G. A. Smith, A. C. Simmonett,
    A. E. DePrince III, E. G. Hohenstein, U. Bozkaya, A. Yu. Sokolov,
    R. Di Remigio, R. M. Richard, J. F. Gonthier, A. M. James,
    H. R. McAlexander, A. Kumar, M. Saitow, X. Wang, B. P. Pritchard,
    P. Verma, H. F. Schaefer III, K. Patkowski, R. A. King, E. F. Valeev,
    F. A. Evangelista, J. M. Turney, T. D. Crawford, and C. D. Sherrill,
    J. Chem. Theory Comput. 13(7) pp 3185--3197 (2017).
    (doi: 10.1021/acs.jctc.7b00174)


                         Additional Contributions by
    P. Kraus, H. Kruse, M. H. Lechner, M. C. Schieber, R. A. Shaw,
    A. Alenaizan, R. Galvelis, Z. L. Glick, S. Lehtola, and J. P. Misiewicz

    -----------------------------------------------------------------------


    Psi4 started on: Monday, 27 April 2020 10:03PM

    Process ID: 30454
    Host:       ds3
    PSIDATADIR: /theoryfs2/ds/metcalf/miniconda2/envs/tf2gpu/share/psi4
    Memory:     500.0 MiB
    Threads:    1
    
  ==> Input File <==

--------------------------------------------------------------------------
import numpy as np
set {scf_type pk
basis cc-pvdz
d_convergence 10
gdma_switch   0
gdma_limit    0
gdma_origin   [ 0.0,  0.0,  0.0 ]
}
molecule test {
    units Angstrom
    0 1
    --
    0 1
    C               -2.288476503052983     2.682650672712380    -0.378545952890395
    C               -0.489476503052983     0.962650672712380     0.424454047109604
    C               -1.477476503052983     1.972650672712380     0.664454047109604
    C                0.008523496947017     0.546650672712380     1.682454047109605
    C               -1.559476503052983     2.108650672712380     2.014454047109604
    C                1.013523496947017    -0.587349327287620    -0.609545952890395
    C                1.471523496947017    -0.991349327287620     0.640454047109605
    C                0.029523496947017     0.375650672712380    -0.731545952890395
    C                0.980523496947017    -0.427349327287620     1.802454047109605
    N               -0.671476503052983     1.259650672712380     2.632454047109605
    H                1.436523496947017    -1.027349327287620    -1.501545952890395
    H                2.244523496947017    -1.741349327287619     0.695454047109605
    H               -0.315476503052983     0.688650672712380    -1.705545952890395
    H                1.318523496947017    -0.753349327287620     2.772454047109604
    H               -1.624476503052983     3.061650672712380    -1.157545952890396
    H               -2.783476503052983     3.531650672712380     0.084454047109604
    H               -2.234476503052983     2.785650672712380     2.528454047109604
    H               -0.577476503052983     1.182650672712380     3.640454047109605
    H               -3.026253503052982     2.001902672712380    -0.828286952890395
    C                0.755523496947017    -3.370349327287620    -3.289545952890395
    C                2.091523496947017    -3.763349327287620    -3.869545952890395
    H                0.414523496947017    -2.448349327287620    -3.756545952890396
    H                0.030523496947017    -4.158349327287620    -3.488545952890395
    H                0.841523496947017    -3.227349327287619    -2.212545952890396
    H                2.465523496947017    -4.629349327287620    -3.337545952890395
    H                2.761023496947017    -2.902044327287619    -3.728407652890395
    H                1.999493496947018    -4.022315327287619    -4.934659952890396

}
e, wfn = energy('scf', return_wfn=True)
gdma(wfn)
dmavals = variable('DMA DISTRIBUTED MULTIPOLES')
charges = np.array(dmavals)
print(charges)
np.save('SSI-040TRP-055LEU-1-dimer.npy', np.array(charges))--------------------------------------------------------------------------

*** tstart() called on ds3
*** at Mon Apr 27 22:03:02 2020

   => Loading Basis Set <=

    Name: CC-PVDZ
    Role: ORBITAL
    Keyword: BASIS
    atoms 1-9, 20-21   entry C          line   138 file /theoryfs2/ds/metcalf/miniconda2/envs/tf2gpu/share/psi4/basis/cc-pvdz.gbs 
    atoms 10           entry N          line   168 file /theoryfs2/ds/metcalf/miniconda2/envs/tf2gpu/share/psi4/basis/cc-pvdz.gbs 
    atoms 11-19, 22-27 entry H          line    22 file /theoryfs2/ds/metcalf/miniconda2/envs/tf2gpu/share/psi4/basis/cc-pvdz.gbs 


         ---------------------------------------------------------
                                   SCF
               by Justin Turney, Rob Parrish, Andy Simmonett
                          and Daniel G. A. Smith
                              RHF Reference
                        1 Threads,    500 MiB Core
         ---------------------------------------------------------

  ==> Geometry <==

    Molecular point group: c1
    Full point group: C1

    Geometry (in Angstrom), charge = 0, multiplicity = 1:

       Center              X                  Y                   Z               Mass       
    ------------   -----------------  -----------------  -----------------  -----------------
         C           -2.288476503053     2.682650672712    -0.378545952890    12.000000000000
         C           -0.489476503053     0.962650672712     0.424454047110    12.000000000000
         C           -1.477476503053     1.972650672712     0.664454047110    12.000000000000
         C            0.008523496947     0.546650672712     1.682454047110    12.000000000000
         C           -1.559476503053     2.108650672712     2.014454047110    12.000000000000
         C            1.013523496947    -0.587349327288    -0.609545952890    12.000000000000
         C            1.471523496947    -0.991349327288     0.640454047110    12.000000000000
         C            0.029523496947     0.375650672712    -0.731545952890    12.000000000000
         C            0.980523496947    -0.427349327288     1.802454047110    12.000000000000
         N           -0.671476503053     1.259650672712     2.632454047110    14.003074004430
         H            1.436523496947    -1.027349327288    -1.501545952890     1.007825032230
         H            2.244523496947    -1.741349327288     0.695454047110     1.007825032230
         H           -0.315476503053     0.688650672712    -1.705545952890     1.007825032230
         H            1.318523496947    -0.753349327288     2.772454047110     1.007825032230
         H           -1.624476503053     3.061650672712    -1.157545952890     1.007825032230
         H           -2.783476503053     3.531650672712     0.084454047110     1.007825032230
         H           -2.234476503053     2.785650672712     2.528454047110     1.007825032230
         H           -0.577476503053     1.182650672712     3.640454047110     1.007825032230
         H           -3.026253503053     2.001902672712    -0.828286952890     1.007825032230
         C            0.755523496947    -3.370349327288    -3.289545952890    12.000000000000
         C            2.091523496947    -3.763349327288    -3.869545952890    12.000000000000
         H            0.414523496947    -2.448349327288    -3.756545952890     1.007825032230
         H            0.030523496947    -4.158349327288    -3.488545952890     1.007825032230
         H            0.841523496947    -3.227349327288    -2.212545952890     1.007825032230
         H            2.465523496947    -4.629349327288    -3.337545952890     1.007825032230
         H            2.761023496947    -2.902044327288    -3.728407652890     1.007825032230
         H            1.999493496947    -4.022315327288    -4.934659952890     1.007825032230

  Running in c1 symmetry.

  Rotational constants: A =      0.05595  B =      0.01245  C =      0.01051 [cm^-1]
  Rotational constants: A =   1677.48118  B =    373.28503  C =    315.16396 [MHz]
  Nuclear repulsion =  635.384210489932002

  Charge       = 0
  Multiplicity = 1
  Electrons    = 88
  Nalpha       = 44
  Nbeta        = 44

  ==> Algorithm <==

  SCF Algorithm Type is PK.
  DIIS enabled.
  MOM disabled.
  Fractional occupation disabled.
  Guess Type is SAD.
  Energy threshold   = 1.00e-06
  Density threshold  = 1.00e-10
  Integral threshold = 0.00e+00

  ==> Primary Basis <==

  Basis Set: CC-PVDZ
    Blend: CC-PVDZ
    Number of shells: 117
    Number of basis function: 243
    Number of Cartesian functions: 255
    Spherical Harmonics?: true
    Max angular momentum: 2

  ==> Pre-Iterations <==

   -------------------------------------------------------
    Irrep   Nso     Nmo     Nalpha   Nbeta   Ndocc  Nsocc
   -------------------------------------------------------
     A        243     243       0       0       0       0
   -------------------------------------------------------
    Total     243     243      44      44      44       0
   -------------------------------------------------------

  ==> Integral Setup <==

  Using integral reordering PK algorithm.
  Sizing the integral batches needed.
  Building batch lookup table.
   Calculation information:
      Number of atoms:                  27
      Number of AO shells:             117
      Number of primitives:            339
      Number of atomic orbitals:       255
      Number of basis functions:       243

      Integral cutoff                 1.00e-12
      Number of threads:                 1

	Batch   1 pq = [       0,    9405] index = [             0,44231715] size =     44231715
	Batch   2 pq = [    9405,   13301] index = [      44231715,88464951] size =     44233236
	Batch   3 pq = [   13301,   16290] index = [      88464951,132690195] size =     44225244
	Batch   4 pq = [   16290,   18810] index = [     132690195,176917455] size =     44227260
	Batch   5 pq = [   18810,   21030] index = [     176917455,221140965] size =     44223510
	Batch   6 pq = [   21030,   23037] index = [     221140965,265363203] size =     44222238
	Batch   7 pq = [   23037,   24883] index = [     265363203,309594286] size =     44231083
	Batch   8 pq = [   24883,   26601] index = [     309594286,353819901] size =     44225615
	Batch   9 pq = [   26601,   28214] index = [     353819901,398029005] size =     44209104
	Batch  10 pq = [   28214,   29646] index = [     398029005,439457481] size =     41428476
  Task number: 40
  Buffer size: 11059200
  Buffer per thread: 2
  We computed 18057615 shell quartets total.
  Whereas there are 23829156 unique shell quartets.

  ==> DiskJK: Disk-Based J/K Matrices <==

    J tasked:                  Yes
    K tasked:                  Yes
    wK tasked:                  No
    Memory [MiB]:              375
    Schwarz Cutoff:          1E-12

    OpenMP threads:              1

  Minimum eigenvalue in the overlap matrix is 2.3407766586E-04.
  Using Symmetric Orthogonalization.

  SCF Guess: Superposition of Atomic Densities via on-the-fly atomic UHF.

  ==> Iterations <==

                        Total Energy        Delta E     RMS |[F,P]|

   @RHF iter SAD:  -479.15635161868687   -4.79156e+02   0.00000e+00 
   @RHF iter   1:  -479.48416872459188   -3.27817e-01   2.63726e-03 DIIS
   @RHF iter   2:  -479.72055843404331   -2.36390e-01   1.17914e-03 DIIS
   @RHF iter   3:  -479.76379872907512   -4.32403e-02   3.04735e-04 DIIS
   @RHF iter   4:  -479.76763627903864   -3.83755e-03   1.40461e-04 DIIS
   @RHF iter   5:  -479.76829479275500   -6.58514e-04   2.00670e-05 DIIS
   @RHF iter   6:  -479.76832392074311   -2.91280e-05   9.22499e-06 DIIS
   @RHF iter   7:  -479.76832983057750   -5.90983e-06   3.77484e-06 DIIS
   @RHF iter   8:  -479.76833145607571   -1.62550e-06   1.46971e-06 DIIS
   @RHF iter   9:  -479.76833176697369   -3.10898e-07   6.37304e-07 DIIS
   @RHF iter  10:  -479.76833182719668   -6.02230e-08   2.90655e-07 DIIS
   @RHF iter  11:  -479.76833184190241   -1.47057e-08   1.10519e-07 DIIS
   @RHF iter  12:  -479.76833184401664   -2.11423e-09   3.62923e-08 DIIS
   @RHF iter  13:  -479.76833184417080   -1.54159e-10   9.54313e-09 DIIS
   @RHF iter  14:  -479.76833184418143   -1.06297e-11   3.89321e-09 DIIS
   @RHF iter  15:  -479.76833184417904    2.38742e-12   2.02482e-09 DIIS
   @RHF iter  16:  -479.76833184417848    5.68434e-13   9.22660e-10 DIIS
   @RHF iter  17:  -479.76833184417734    1.13687e-12   3.63298e-10 DIIS
   @RHF iter  18:  -479.76833184418513   -7.78755e-12   1.56063e-10 DIIS
   @RHF iter  19:  -479.76833184418331    1.81899e-12   4.83368e-11 DIIS
  Energy and wave function converged.


  ==> Post-Iterations <==

    Orbital Energies [Eh]
    ---------------------

    Doubly Occupied:                                                      

       1A    -15.600013     2A    -11.262961     3A    -11.261845  
       4A    -11.227860     5A    -11.227495     6A    -11.226520  
       7A    -11.226034     8A    -11.217702     9A    -11.217268  
      10A    -11.215673    11A    -11.214352    12A    -11.210319  
      13A     -1.295222    14A     -1.131515    15A     -1.073653  
      16A     -1.021759    17A     -0.999133    18A     -0.987960  
      19A     -0.931152    20A     -0.840470    21A     -0.830273  
      22A     -0.804385    23A     -0.752579    24A     -0.719198  
      25A     -0.662022    26A     -0.643231    27A     -0.602757  
      28A     -0.601436    29A     -0.598228    30A     -0.592423  
      31A     -0.591510    32A     -0.567686    33A     -0.552735  
      34A     -0.536779    35A     -0.527783    36A     -0.500736  
      37A     -0.493139    38A     -0.481956    39A     -0.479278  
      40A     -0.470354    41A     -0.462869    42A     -0.372712  
      43A     -0.295916    44A     -0.274965  

    Virtual:                                                              

      45A      0.127058    46A      0.170068    47A      0.173314  
      48A      0.181790    49A      0.192088    50A      0.212449  
      51A      0.220892    52A      0.228472    53A      0.235015  
      54A      0.243578    55A      0.249919    56A      0.267087  
      57A      0.269274    58A      0.277818    59A      0.285964  
      60A      0.293379    61A      0.307998    62A      0.339951  
      63A      0.376657    64A      0.388048    65A      0.400256  
      66A      0.405748    67A      0.426148    68A      0.449175  
      69A      0.478516    70A      0.484239    71A      0.501072  
      72A      0.512361    73A      0.590405    74A      0.601636  
      75A      0.603998    76A      0.613038    77A      0.631976  
      78A      0.634579    79A      0.643488    80A      0.667774  
      81A      0.677873    82A      0.687454    83A      0.705820  
      84A      0.707994    85A      0.722401    86A      0.732425  
      87A      0.740870    88A      0.743509    89A      0.747981  
      90A      0.760869    91A      0.763800    92A      0.776682  
      93A      0.791950    94A      0.794866    95A      0.802391  
      96A      0.842285    97A      0.855445    98A      0.862613  
      99A      0.871492   100A      0.881560   101A      0.884785  
     102A      0.888980   103A      0.891308   104A      0.900205  
     105A      0.909159   106A      0.912944   107A      0.922106  
     108A      0.932505   109A      0.948137   110A      0.952109  
     111A      0.958533   112A      0.969492   113A      0.981972  
     114A      0.990389   115A      1.008614   116A      1.045924  
     117A      1.064965   118A      1.071335   119A      1.093244  
     120A      1.124865   121A      1.132973   122A      1.137522  
     123A      1.145259   124A      1.152719   125A      1.166383  
     126A      1.178369   127A      1.213521   128A      1.227048  
     129A      1.229647   130A      1.238317   131A      1.245564  
     132A      1.264085   133A      1.275528   134A      1.294906  
     135A      1.306680   136A      1.332705   137A      1.337751  
     138A      1.364258   139A      1.377123   140A      1.407713  
     141A      1.444283   142A      1.483211   143A      1.502923  
     144A      1.524107   145A      1.570603   146A      1.575138  
     147A      1.582978   148A      1.598023   149A      1.630496  
     150A      1.639710   151A      1.650535   152A      1.678526  
     153A      1.684387   154A      1.693090   155A      1.705112  
     156A      1.743579   157A      1.766923   158A      1.776536  
     159A      1.789061   160A      1.808294   161A      1.829374  
     162A      1.835072   163A      1.853630   164A      1.868100  
     165A      1.882971   166A      1.888673   167A      1.908608  
     168A      1.909841   169A      1.919057   170A      1.928633  
     171A      1.937460   172A      1.939323   173A      1.947811  
     174A      1.955297   175A      1.961664   176A      1.972598  
     177A      1.977703   178A      1.983051   179A      2.003559  
     180A      2.011352   181A      2.015346   182A      2.027910  
     183A      2.048883   184A      2.083003   185A      2.088015  
     186A      2.097050   187A      2.107939   188A      2.112411  
     189A      2.118508   190A      2.125924   191A      2.141224  
     192A      2.154322   193A      2.157857   194A      2.178291  
     195A      2.191163   196A      2.229021   197A      2.249761  
     198A      2.285882   199A      2.291267   200A      2.301916  
     201A      2.317957   202A      2.327497   203A      2.337380  
     204A      2.351818   205A      2.396648   206A      2.426618  
     207A      2.457597   208A      2.465577   209A      2.472426  
     210A      2.476468   211A      2.539112   212A      2.570012  
     213A      2.584836   214A      2.600036   215A      2.610544  
     216A      2.647269   217A      2.666534   218A      2.688362  
     219A      2.699872   220A      2.767214   221A      2.777241  
     222A      2.791299   223A      2.796368   224A      2.805809  
     225A      2.810584   226A      2.828203   227A      2.845372  
     228A      2.859520   229A      2.870274   230A      2.882866  
     231A      2.914327   232A      2.956144   233A      2.972858  
     234A      2.977404   235A      3.038538   236A      3.061664  
     237A      3.090034   238A      3.132163   239A      3.217474  
     240A      3.323492   241A      3.385046   242A      3.746078  
     243A      3.978261  

    Final Occupation by Irrep:
              A 
    DOCC [    44 ]

  @RHF Final Energy:  -479.76833184418331

   => Energetics <=

    Nuclear Repulsion Energy =            635.3842104899320020
    One-Electron Energy =               -1908.6973799012575910
    Two-Electron Energy =                 793.5448375671422809
    Total Energy =                       -479.7683318441833080

Computation Completed


Properties will be evaluated at   0.000000,   0.000000,   0.000000 [a0]

Properties computed using the SCF density matrix

  Nuclear Dipole Moment: [e a0]
     X:     2.7680      Y:   -10.9323      Z:   -15.8789

  Electronic Dipole Moment: [e a0]
     X:    -3.0323      Y:    11.1831      Z:    16.6312

  Dipole Moment: [e a0]
     X:    -0.2643      Y:     0.2508      Z:     0.7523     Total:     0.8359

  Dipole Moment: [D]
     X:    -0.6719      Y:     0.6374      Z:     1.9122     Total:     2.1246


*** tstop() called on ds3 at Mon Apr 27 22:07:17 2020
Module time:
	user time   =     152.37 seconds =       2.54 minutes
	system time =      74.89 seconds =       1.25 minutes
	total time  =        255 seconds =       4.25 minutes
Total time:
	user time   =     152.37 seconds =       2.54 minutes
	system time =      74.89 seconds =       1.25 minutes
	total time  =        255 seconds =       4.25 minutes
                                     G D M A

                                 by Anthony Stone

                           version 2.2.06, 22 June 2011

               Distributed Multipoles from Gaussian wavefunctions


Starting at 22:7:17 on 27 Apr 2020  


Using SCF density matrix from file ./SSI/SSI-040TRP-055LEU-1-dimer.test.30454.fchk


                         Distributed Multipole Analysis

Standard DMA

Positions and radii in angstrom
Multipole moments in atomic units, ea_0^k for rank k

C          x = -2.288477  y =  2.682651  z = -0.378546 angstrom
           Maximum rank =  0   Radius =  0.650 angstrom
                   Q00  =  -0.202821

C          x = -0.489477  y =  0.962651  z =  0.424454 angstrom
           Maximum rank =  0   Radius =  0.650 angstrom
                   Q00  =  -0.054068

C          x = -1.477477  y =  1.972651  z =  0.664454 angstrom
           Maximum rank =  0   Radius =  0.650 angstrom
                   Q00  =  -0.126366

C          x =  0.008523  y =  0.546651  z =  1.682454 angstrom
           Maximum rank =  0   Radius =  0.650 angstrom
                   Q00  =   0.251115

C          x = -1.559477  y =  2.108651  z =  2.014454 angstrom
           Maximum rank =  0   Radius =  0.650 angstrom
                   Q00  =   0.070472

C          x =  1.013523  y = -0.587349  z = -0.609546 angstrom
           Maximum rank =  0   Radius =  0.650 angstrom
                   Q00  =  -0.096115

C          x =  1.471523  y = -0.991349  z =  0.640454 angstrom
           Maximum rank =  0   Radius =  0.650 angstrom
                   Q00  =  -0.004637

C          x =  0.029523  y =  0.375651  z = -0.731546 angstrom
           Maximum rank =  0   Radius =  0.650 angstrom
                   Q00  =  -0.096717

C          x =  0.980523  y = -0.427349  z =  1.802454 angstrom
           Maximum rank =  0   Radius =  0.650 angstrom
                   Q00  =  -0.120978

N          x = -0.671477  y =  1.259651  z =  2.632454 angstrom
           Maximum rank =  0   Radius =  0.650 angstrom
                   Q00  =  -0.499754

H          x =  1.436523  y = -1.027349  z = -1.501546 angstrom
           Maximum rank =  0   Radius =  0.325 angstrom
                   Q00  =   0.058936

H          x =  2.244523  y = -1.741349  z =  0.695454 angstrom
           Maximum rank =  0   Radius =  0.325 angstrom
                   Q00  =   0.060864

H          x = -0.315477  y =  0.688651  z = -1.705546 angstrom
           Maximum rank =  0   Radius =  0.325 angstrom
                   Q00  =   0.067101

H          x =  1.318523  y = -0.753349  z =  2.772454 angstrom
           Maximum rank =  0   Radius =  0.325 angstrom
                   Q00  =   0.072565

H          x = -1.624477  y =  3.061651  z = -1.157546 angstrom
           Maximum rank =  0   Radius =  0.325 angstrom
                   Q00  =   0.099284

H          x = -2.783477  y =  3.531651  z =  0.084454 angstrom
           Maximum rank =  0   Radius =  0.325 angstrom
                   Q00  =   0.104835

H          x = -2.234477  y =  2.785651  z =  2.528454 angstrom
           Maximum rank =  0   Radius =  0.325 angstrom
                   Q00  =   0.100534

H          x = -0.577477  y =  1.182651  z =  3.640454 angstrom
           Maximum rank =  0   Radius =  0.325 angstrom
                   Q00  =   0.217451

H          x = -3.026254  y =  2.001903  z = -0.828287 angstrom
           Maximum rank =  0   Radius =  0.325 angstrom
                   Q00  =   0.097533

C          x =  0.755523  y = -3.370349  z = -3.289546 angstrom
           Maximum rank =  0   Radius =  0.650 angstrom
                   Q00  =  -0.227908

C          x =  2.091523  y = -3.763349  z = -3.869546 angstrom
           Maximum rank =  0   Radius =  0.650 angstrom
                   Q00  =  -0.228277

H          x =  0.414523  y = -2.448349  z = -3.756546 angstrom
           Maximum rank =  0   Radius =  0.325 angstrom
                   Q00  =   0.073521

H          x =  0.030523  y = -4.158349  z = -3.488546 angstrom
           Maximum rank =  0   Radius =  0.325 angstrom
                   Q00  =   0.075267

H          x =  0.841523  y = -3.227349  z = -2.212546 angstrom
           Maximum rank =  0   Radius =  0.325 angstrom
                   Q00  =   0.081846

H          x =  2.465524  y = -4.629349  z = -3.337546 angstrom
           Maximum rank =  0   Radius =  0.325 angstrom
                   Q00  =   0.077986

H          x =  2.761024  y = -2.902044  z = -3.728408 angstrom
           Maximum rank =  0   Radius =  0.325 angstrom
                   Q00  =   0.071108

H          x =  1.999493  y = -4.022315  z = -4.934660 angstrom
           Maximum rank =  0   Radius =  0.325 angstrom
                   Q00  =   0.077224

Total multipoles referred to origin at
           x =   0.000000,  y =    0.000000,  z =    0.000000 angstrom
                   Q00  =  -0.000000

Finished at 22:7:18 on 27 Apr 2020  

  DMA results are available in the Python driver through the
	  variable('DMA DISTRIBUTED MULTIPOLES')
  and
	  variable('DMA TOTAL MULTIPOLES')
  commands.


    Psi4 stopped on: Monday, 27 April 2020 10:07PM
    Psi4 wall time for execution: 0:04:15.15

*** Psi4 exiting successfully. Buy a developer a beer!
