
    -----------------------------------------------------------------------
          Psi4: An Open-Source Ab Initio Electronic Structure Package
                               Psi4 1.3.2 release

                         Git: Rev {HEAD} ecbda83 


    R. M. Parrish, L. A. Burns, D. G. A. Smith, A. C. Simmonett,
    A. E. DePrince III, E. G. Hohenstein, U. Bozkaya, A. Yu. Sokolov,
    R. Di Remigio, R. M. Richard, J. F. Gonthier, A. M. James,
    H. R. McAlexander, A. Kumar, M. Saitow, X. Wang, B. P. Pritchard,
    P. Verma, H. F. Schaefer III, K. Patkowski, R. A. King, E. F. Valeev,
    F. A. Evangelista, J. M. Turney, T. D. Crawford, and C. D. Sherrill,
    J. Chem. Theory Comput. 13(7) pp 3185--3197 (2017).
    (doi: 10.1021/acs.jctc.7b00174)


                         Additional Contributions by
    P. Kraus, H. Kruse, M. H. Lechner, M. C. Schieber, R. A. Shaw,
    A. Alenaizan, R. Galvelis, Z. L. Glick, S. Lehtola, and J. P. Misiewicz

    -----------------------------------------------------------------------


    Psi4 started on: Sunday, 26 April 2020 07:48PM

    Process ID: 8987
    Host:       ds3
    PSIDATADIR: /theoryfs2/ds/metcalf/miniconda2/envs/tf2gpu/share/psi4
    Memory:     500.0 MiB
    Threads:    1
    
  ==> Input File <==

--------------------------------------------------------------------------
import numpy as np
set {scf_type pk
basis cc-pvdz
d_convergence 10
gdma_switch   0
gdma_limit    0
gdma_origin   [ 0.0,  0.0,  0.0 ]
}
molecule test {
    units Angstrom
    0 1
    --
    0 1
    C               -0.362508416214533     2.839614231293811     1.413634524147044
    C                0.618491583785467     0.700614231293812     0.476634524147044
    C               -0.281508416214533     1.761614231293812     0.354634524147044
    C                0.707491583785467    -0.278385768706188    -0.510365475852956
    C               -0.102508416214533    -0.199385768706188    -1.638365475852956
    C               -1.081508416214533     1.832614231293812    -0.787365475852956
    C               -0.993508416214533     0.858614231293812    -1.781365475852956
    O               -0.012508416214533    -1.157385768706188    -2.604365475852956
    H                1.273491583785467     0.647614231293812     1.335634524147044
    H                1.443491583785467    -1.062385768706188    -0.439365475852956
    H               -0.972508416214533     3.648614231293811     1.011634524147044
    H                0.638491583785467     3.238614231293812     1.558634524147044
    H               -1.790508416214533     2.643614231293812    -0.898365475852956
    H                0.585491583785467    -1.867385768706188    -2.349365475852956
    H               -1.626508416214533     0.907614231293812    -2.656365475852956
    H               -0.792169416214533     2.530863231293812     2.378032824147045
    C                0.199491583785467    -2.427385768706188     1.848634524147044
    C                1.092491583785467    -3.050385768706188     2.908634524147044
    H               -0.028508416214533    -1.390385768706188     2.062634524147045
    H                0.693491583785467    -2.524385768706188     0.887634524147044
    H               -0.738508416214533    -2.981385768706188     1.775634524147044
    H                1.559491583785467    -3.937385768706188     2.474634524147044
    H                0.489391583785467    -3.386715768706189     3.764878524147044
    H                1.887829583785467    -2.358849768706188     3.223619824147044

}
e, wfn = energy('scf', return_wfn=True)
gdma(wfn)
dmavals = variable('DMA DISTRIBUTED MULTIPOLES')
charges = np.array(dmavals)
print(charges)
np.save('SSI-039TYR-043ILE-1-dimer.npy', np.array(charges))--------------------------------------------------------------------------

*** tstart() called on ds3
*** at Sun Apr 26 19:48:15 2020

   => Loading Basis Set <=

    Name: CC-PVDZ
    Role: ORBITAL
    Keyword: BASIS
    atoms 1-7, 17-18  entry C          line   138 file /theoryfs2/ds/metcalf/miniconda2/envs/tf2gpu/share/psi4/basis/cc-pvdz.gbs 
    atoms 8           entry O          line   198 file /theoryfs2/ds/metcalf/miniconda2/envs/tf2gpu/share/psi4/basis/cc-pvdz.gbs 
    atoms 9-16, 19-24 entry H          line    22 file /theoryfs2/ds/metcalf/miniconda2/envs/tf2gpu/share/psi4/basis/cc-pvdz.gbs 


         ---------------------------------------------------------
                                   SCF
               by Justin Turney, Rob Parrish, Andy Simmonett
                          and Daniel G. A. Smith
                              RHF Reference
                        1 Threads,    500 MiB Core
         ---------------------------------------------------------

  ==> Geometry <==

    Molecular point group: c1
    Full point group: C1

    Geometry (in Angstrom), charge = 0, multiplicity = 1:

       Center              X                  Y                   Z               Mass       
    ------------   -----------------  -----------------  -----------------  -----------------
         C           -0.362508416215     2.839614231294     1.413634524147    12.000000000000
         C            0.618491583785     0.700614231294     0.476634524147    12.000000000000
         C           -0.281508416215     1.761614231294     0.354634524147    12.000000000000
         C            0.707491583785    -0.278385768706    -0.510365475853    12.000000000000
         C           -0.102508416215    -0.199385768706    -1.638365475853    12.000000000000
         C           -1.081508416215     1.832614231294    -0.787365475853    12.000000000000
         C           -0.993508416215     0.858614231294    -1.781365475853    12.000000000000
         O           -0.012508416215    -1.157385768706    -2.604365475853    15.994914619570
         H            1.273491583785     0.647614231294     1.335634524147     1.007825032230
         H            1.443491583785    -1.062385768706    -0.439365475853     1.007825032230
         H           -0.972508416215     3.648614231294     1.011634524147     1.007825032230
         H            0.638491583785     3.238614231294     1.558634524147     1.007825032230
         H           -1.790508416215     2.643614231294    -0.898365475853     1.007825032230
         H            0.585491583785    -1.867385768706    -2.349365475853     1.007825032230
         H           -1.626508416215     0.907614231294    -2.656365475853     1.007825032230
         H           -0.792169416215     2.530863231294     2.378032824147     1.007825032230
         C            0.199491583785    -2.427385768706     1.848634524147    12.000000000000
         C            1.092491583785    -3.050385768706     2.908634524147    12.000000000000
         H           -0.028508416215    -1.390385768706     2.062634524147     1.007825032230
         H            0.693491583785    -2.524385768706     0.887634524147     1.007825032230
         H           -0.738508416215    -2.981385768706     1.775634524147     1.007825032230
         H            1.559491583785    -3.937385768706     2.474634524147     1.007825032230
         H            0.489391583785    -3.386715768706     3.764878524147     1.007825032230
         H            1.887829583785    -2.358849768706     3.223619824147     1.007825032230

  Running in c1 symmetry.

  Rotational constants: A =      0.04462  B =      0.02629  C =      0.01773 [cm^-1]
  Rotational constants: A =   1337.71708  B =    788.24765  C =    531.47757 [MHz]
  Nuclear repulsion =  498.571514937224720

  Charge       = 0
  Multiplicity = 1
  Electrons    = 76
  Nalpha       = 38
  Nbeta        = 38

  ==> Algorithm <==

  SCF Algorithm Type is PK.
  DIIS enabled.
  MOM disabled.
  Fractional occupation disabled.
  Guess Type is SAD.
  Energy threshold   = 1.00e-06
  Density threshold  = 1.00e-10
  Integral threshold = 0.00e+00

  ==> Primary Basis <==

  Basis Set: CC-PVDZ
    Blend: CC-PVDZ
    Number of shells: 102
    Number of basis function: 210
    Number of Cartesian functions: 220
    Spherical Harmonics?: true
    Max angular momentum: 2

  ==> Pre-Iterations <==

   -------------------------------------------------------
    Irrep   Nso     Nmo     Nalpha   Nbeta   Ndocc  Nsocc
   -------------------------------------------------------
     A        210     210       0       0       0       0
   -------------------------------------------------------
    Total     210     210      38      38      38       0
   -------------------------------------------------------

  ==> Integral Setup <==

  Using integral reordering PK algorithm.
  Sizing the integral batches needed.
  Building batch lookup table.
   Calculation information:
      Number of atoms:                  24
      Number of AO shells:             102
      Number of primitives:            290
      Number of atomic orbitals:       220
      Number of basis functions:       210

      Integral cutoff                 1.00e-12
      Number of threads:                 1

	Batch   1 pq = [       0,    9405] index = [             0,44231715] size =     44231715
	Batch   2 pq = [    9405,   13301] index = [      44231715,88464951] size =     44233236
	Batch   3 pq = [   13301,   16290] index = [      88464951,132690195] size =     44225244
	Batch   4 pq = [   16290,   18810] index = [     132690195,176917455] size =     44227260
	Batch   5 pq = [   18810,   21030] index = [     176917455,221140965] size =     44223510
	Batch   6 pq = [   21030,   22155] index = [     221140965,245433090] size =     24292125
  Task number: 23
  Buffer size: 11059200
  Buffer per thread: 2
  We computed 12066653 shell quartets total.
  Whereas there are 13799631 unique shell quartets.

  ==> DiskJK: Disk-Based J/K Matrices <==

    J tasked:                  Yes
    K tasked:                  Yes
    wK tasked:                  No
    Memory [MiB]:              375
    Schwarz Cutoff:          1E-12

    OpenMP threads:              1

  Minimum eigenvalue in the overlap matrix is 3.2429744548E-04.
  Using Symmetric Orthogonalization.

  SCF Guess: Superposition of Atomic Densities via on-the-fly atomic UHF.

  ==> Iterations <==

                        Total Energy        Delta E     RMS |[F,P]|

   @RHF iter SAD:  -422.73800033201792   -4.22738e+02   0.00000e+00 
   @RHF iter   1:  -423.59191575180654   -8.53915e-01   2.98616e-03 DIIS
   @RHF iter   2:  -423.80979059353268   -2.17875e-01   1.25093e-03 DIIS
   @RHF iter   3:  -423.84435474552566   -3.45642e-02   2.84040e-04 DIIS
   @RHF iter   4:  -423.84721760970257   -2.86286e-03   1.17737e-04 DIIS
   @RHF iter   5:  -423.84757273851602   -3.55129e-04   2.06475e-05 DIIS
   @RHF iter   6:  -423.84759016257317   -1.74241e-05   6.30676e-06 DIIS
   @RHF iter   7:  -423.84759172984053   -1.56727e-06   2.03052e-06 DIIS
   @RHF iter   8:  -423.84759193228717   -2.02447e-07   7.27838e-07 DIIS
   @RHF iter   9:  -423.84759195981366   -2.75265e-08   2.61944e-07 DIIS
   @RHF iter  10:  -423.84759196388598   -4.07232e-09   9.88222e-08 DIIS
   @RHF iter  11:  -423.84759196491063   -1.02466e-09   4.66487e-08 DIIS
   @RHF iter  12:  -423.84759196515961   -2.48974e-10   2.53306e-08 DIIS
   @RHF iter  13:  -423.84759196522987   -7.02585e-11   8.23841e-09 DIIS
   @RHF iter  14:  -423.84759196523669   -6.82121e-12   2.15518e-09 DIIS
   @RHF iter  15:  -423.84759196523737   -6.82121e-13   7.00507e-10 DIIS
   @RHF iter  16:  -423.84759196523561    1.76215e-12   2.17790e-10 DIIS
   @RHF iter  17:  -423.84759196523760   -1.98952e-12   8.28115e-11 DIIS
  Energy and wave function converged.


  ==> Post-Iterations <==

    Orbital Energies [Eh]
    ---------------------

    Doubly Occupied:                                                      

       1A    -20.582087     2A    -11.297652     3A    -11.238120  
       4A    -11.237788     5A    -11.233900     6A    -11.231566  
       7A    -11.229436     8A    -11.228076     9A    -11.219431  
      10A    -11.212513    11A     -1.398796    12A     -1.149445  
      13A     -1.036202    14A     -1.022846    15A     -1.015600  
      16A     -0.925819    17A     -0.844810    18A     -0.837161  
      19A     -0.800959    20A     -0.731264    21A     -0.667139  
      22A     -0.642026    23A     -0.609744    24A     -0.601224  
      25A     -0.599526    26A     -0.587368    27A     -0.583084  
      28A     -0.570832    29A     -0.564300    30A     -0.525296  
      31A     -0.504025    32A     -0.498407    33A     -0.488193  
      34A     -0.486439    35A     -0.478016    36A     -0.463260  
      37A     -0.335835    38A     -0.301293  

    Virtual:                                                              

      39A      0.127800    40A      0.156942    41A      0.163802  
      42A      0.180184    43A      0.199161    44A      0.214461  
      45A      0.227257    46A      0.243914    47A      0.250934  
      48A      0.255327    49A      0.262558    50A      0.271385  
      51A      0.293550    52A      0.298800    53A      0.304685  
      54A      0.341864    55A      0.373194    56A      0.389439  
      57A      0.398925    58A      0.427781    59A      0.452800  
      60A      0.485526    61A      0.494836    62A      0.511845  
      63A      0.587426    64A      0.590844    65A      0.605155  
      66A      0.618240    67A      0.632982    68A      0.653354  
      69A      0.659650    70A      0.674518    71A      0.683749  
      72A      0.700172    73A      0.704646    74A      0.724720  
      75A      0.733341    76A      0.740371    77A      0.764671  
      78A      0.769404    79A      0.785195    80A      0.797508  
      81A      0.816395    82A      0.833604    83A      0.846245  
      84A      0.868657    85A      0.873223    86A      0.876710  
      87A      0.890844    88A      0.894614    89A      0.896181  
      90A      0.901469    91A      0.910660    92A      0.914593  
      93A      0.929849    94A      0.940576    95A      0.945297  
      96A      0.949298    97A      0.967651    98A      0.971241  
      99A      0.996242   100A      1.015160   101A      1.029636  
     102A      1.072134   103A      1.106794   104A      1.127652  
     105A      1.139869   106A      1.146319   107A      1.164168  
     108A      1.193356   109A      1.209279   110A      1.233120  
     111A      1.246770   112A      1.258589   113A      1.268463  
     114A      1.288298   115A      1.307671   116A      1.314512  
     117A      1.332045   118A      1.355253   119A      1.367720  
     120A      1.386068   121A      1.467964   122A      1.478713  
     123A      1.512221   124A      1.516280   125A      1.526704  
     126A      1.546592   127A      1.590944   128A      1.620125  
     129A      1.627254   130A      1.681693   131A      1.687167  
     132A      1.691045   133A      1.720199   134A      1.748695  
     135A      1.759400   136A      1.785343   137A      1.807605  
     138A      1.813145   139A      1.857765   140A      1.866028  
     141A      1.868933   142A      1.892650   143A      1.901421  
     144A      1.904741   145A      1.915623   146A      1.923285  
     147A      1.930120   148A      1.938869   149A      1.941927  
     150A      1.948321   151A      1.954207   152A      1.959378  
     153A      1.978058   154A      1.992319   155A      2.007198  
     156A      2.016151   157A      2.031144   158A      2.051330  
     159A      2.063627   160A      2.078078   161A      2.082499  
     162A      2.116154   163A      2.142011   164A      2.155922  
     165A      2.181201   166A      2.194848   167A      2.211383  
     168A      2.222794   169A      2.263999   170A      2.275769  
     171A      2.302385   172A      2.317297   173A      2.328932  
     174A      2.346113   175A      2.367819   176A      2.405401  
     177A      2.441748   178A      2.449652   179A      2.463102  
     180A      2.485576   181A      2.509396   182A      2.523534  
     183A      2.542257   184A      2.599144   185A      2.604366  
     186A      2.611225   187A      2.648970   188A      2.742664  
     189A      2.760434   190A      2.776605   191A      2.796051  
     192A      2.803343   193A      2.810163   194A      2.845540  
     195A      2.850125   196A      2.853148   197A      2.893861  
     198A      2.956045   199A      2.970839   200A      2.984264  
     201A      3.017501   202A      3.085865   203A      3.111487  
     204A      3.252517   205A      3.284074   206A      3.348200  
     207A      3.575096   208A      3.670783   209A      3.973452  
     210A      4.190811  

    Final Occupation by Irrep:
              A 
    DOCC [    38 ]

  @RHF Final Energy:  -423.84759196523760

   => Energetics <=

    Nuclear Repulsion Energy =            498.5715149372247197
    One-Electron Energy =               -1562.8792597114595537
    Two-Electron Energy =                 640.4601528089972362
    Total Energy =                       -423.8475919652375978

Computation Completed


Properties will be evaluated at   0.000000,   0.000000,   0.000000 [a0]

Properties computed using the SCF density matrix

  Nuclear Dipole Moment: [e a0]
     X:     2.4584      Y:    -5.5291      Z:    13.2335

  Electronic Dipole Moment: [e a0]
     X:    -2.1401      Y:     5.4043      Z:   -12.8227

  Dipole Moment: [e a0]
     X:     0.3183      Y:    -0.1248      Z:     0.4108     Total:     0.5345

  Dipole Moment: [D]
     X:     0.8091      Y:    -0.3172      Z:     1.0442     Total:     1.3585


*** tstop() called on ds3 at Sun Apr 26 19:50:09 2020
Module time:
	user time   =      84.31 seconds =       1.41 minutes
	system time =      34.08 seconds =       0.57 minutes
	total time  =        114 seconds =       1.90 minutes
Total time:
	user time   =      84.31 seconds =       1.41 minutes
	system time =      34.08 seconds =       0.57 minutes
	total time  =        114 seconds =       1.90 minutes
                                     G D M A

                                 by Anthony Stone

                           version 2.2.06, 22 June 2011

               Distributed Multipoles from Gaussian wavefunctions


Starting at 19:50:9 on 26 Apr 2020  


Using SCF density matrix from file ./SSI/SSI-039TYR-043ILE-1-dimer.test.8987.fchk


                         Distributed Multipole Analysis

Standard DMA

Positions and radii in angstrom
Multipole moments in atomic units, ea_0^k for rank k

C          x = -0.362508  y =  2.839614  z =  1.413635 angstrom
           Maximum rank =  0   Radius =  0.650 angstrom
                   Q00  =  -0.199069

C          x =  0.618492  y =  0.700614  z =  0.476635 angstrom
           Maximum rank =  0   Radius =  0.650 angstrom
                   Q00  =   0.018691

C          x = -0.281508  y =  1.761614  z =  0.354635 angstrom
           Maximum rank =  0   Radius =  0.650 angstrom
                   Q00  =  -0.132635

C          x =  0.707492  y = -0.278386  z = -0.510365 angstrom
           Maximum rank =  0   Radius =  0.650 angstrom
                   Q00  =  -0.170548

C          x = -0.102508  y = -0.199386  z = -1.638365 angstrom
           Maximum rank =  0   Radius =  0.650 angstrom
                   Q00  =   0.317515

C          x = -1.081508  y =  1.832614  z = -0.787365 angstrom
           Maximum rank =  0   Radius =  0.650 angstrom
                   Q00  =  -0.014251

C          x = -0.993508  y =  0.858614  z = -1.781365 angstrom
           Maximum rank =  0   Radius =  0.650 angstrom
                   Q00  =  -0.121100

O          x = -0.012508  y = -1.157386  z = -2.604365 angstrom
           Maximum rank =  0   Radius =  0.650 angstrom
                   Q00  =  -0.677758

H          x =  1.273492  y =  0.647614  z =  1.335635 angstrom
           Maximum rank =  0   Radius =  0.325 angstrom
                   Q00  =   0.067357

H          x =  1.443492  y = -1.062386  z = -0.439365 angstrom
           Maximum rank =  0   Radius =  0.325 angstrom
                   Q00  =   0.069571

H          x = -0.972508  y =  3.648614  z =  1.011635 angstrom
           Maximum rank =  0   Radius =  0.325 angstrom
                   Q00  =   0.094489

H          x =  0.638492  y =  3.238614  z =  1.558635 angstrom
           Maximum rank =  0   Radius =  0.325 angstrom
                   Q00  =   0.097357

H          x = -1.790508  y =  2.643614  z = -0.898365 angstrom
           Maximum rank =  0   Radius =  0.325 angstrom
                   Q00  =   0.065209

H          x =  0.585492  y = -1.867386  z = -2.349365 angstrom
           Maximum rank =  0   Radius =  0.325 angstrom
                   Q00  =   0.405367

H          x = -1.626508  y =  0.907614  z = -2.656365 angstrom
           Maximum rank =  0   Radius =  0.325 angstrom
                   Q00  =   0.080774

H          x = -0.792169  y =  2.530863  z =  2.378033 angstrom
           Maximum rank =  0   Radius =  0.325 angstrom
                   Q00  =   0.100291

C          x =  0.199492  y = -2.427386  z =  1.848635 angstrom
           Maximum rank =  0   Radius =  0.650 angstrom
                   Q00  =  -0.207677

C          x =  1.092492  y = -3.050386  z =  2.908635 angstrom
           Maximum rank =  0   Radius =  0.650 angstrom
                   Q00  =  -0.253596

H          x = -0.028508  y = -1.390386  z =  2.062635 angstrom
           Maximum rank =  0   Radius =  0.325 angstrom
                   Q00  =   0.086343

H          x =  0.693492  y = -2.524386  z =  0.887635 angstrom
           Maximum rank =  0   Radius =  0.325 angstrom
                   Q00  =   0.062759

H          x = -0.738508  y = -2.981386  z =  1.775635 angstrom
           Maximum rank =  0   Radius =  0.325 angstrom
                   Q00  =   0.078729

H          x =  1.559492  y = -3.937386  z =  2.474635 angstrom
           Maximum rank =  0   Radius =  0.325 angstrom
                   Q00  =   0.077797

H          x =  0.489392  y = -3.386716  z =  3.764879 angstrom
           Maximum rank =  0   Radius =  0.325 angstrom
                   Q00  =   0.078852

H          x =  1.887830  y = -2.358850  z =  3.223620 angstrom
           Maximum rank =  0   Radius =  0.325 angstrom
                   Q00  =   0.075535

Total multipoles referred to origin at
           x =   0.000000,  y =    0.000000,  z =    0.000000 angstrom
                   Q00  =  -0.000000

Finished at 19:50:9 on 26 Apr 2020  

  DMA results are available in the Python driver through the
	  variable('DMA DISTRIBUTED MULTIPOLES')
  and
	  variable('DMA TOTAL MULTIPOLES')
  commands.


    Psi4 stopped on: Sunday, 26 April 2020 07:50PM
    Psi4 wall time for execution: 0:01:54.51

*** Psi4 exiting successfully. Buy a developer a beer!
