
    -----------------------------------------------------------------------
          Psi4: An Open-Source Ab Initio Electronic Structure Package
                               Psi4 1.3.2 release

                         Git: Rev {HEAD} ecbda83 


    R. M. Parrish, L. A. Burns, D. G. A. Smith, A. C. Simmonett,
    A. E. DePrince III, E. G. Hohenstein, U. Bozkaya, A. Yu. Sokolov,
    R. Di Remigio, R. M. Richard, J. F. Gonthier, A. M. James,
    H. R. McAlexander, A. Kumar, M. Saitow, X. Wang, B. P. Pritchard,
    P. Verma, H. F. Schaefer III, K. Patkowski, R. A. King, E. F. Valeev,
    F. A. Evangelista, J. M. Turney, T. D. Crawford, and C. D. Sherrill,
    J. Chem. Theory Comput. 13(7) pp 3185--3197 (2017).
    (doi: 10.1021/acs.jctc.7b00174)


                         Additional Contributions by
    P. Kraus, H. Kruse, M. H. Lechner, M. C. Schieber, R. A. Shaw,
    A. Alenaizan, R. Galvelis, Z. L. Glick, S. Lehtola, and J. P. Misiewicz

    -----------------------------------------------------------------------


    Psi4 started on: Monday, 27 April 2020 10:19PM

    Process ID: 8724
    Host:       ds3
    PSIDATADIR: /theoryfs2/ds/metcalf/miniconda2/envs/tf2gpu/share/psi4
    Memory:     500.0 MiB
    Threads:    1
    
  ==> Input File <==

--------------------------------------------------------------------------
import numpy as np
set {scf_type pk
basis cc-pvdz
d_convergence 10
gdma_switch   0
gdma_limit    0
gdma_origin   [ 0.0,  0.0,  0.0 ]
}
molecule test {
    units Angstrom
    0 1
    --
    0 1
    C               -2.555850937764367    -2.891446051441534    -1.544470308370553
    C               -2.305850937764366    -1.432446051441534    -1.857470308370553
    O               -2.847850937764366    -0.530446051441534    -1.222470308370553
    N               -1.443850937764366    -1.188446051441534    -2.820470308370553
    H               -2.668850937764366    -3.437446051441534    -2.482470308370553
    H               -3.483850937764366    -2.986446051441535    -0.979470308370553
    H               -1.256850937764366    -0.226446051441534    -3.064470308370553
    H               -1.037850937764366    -1.942446051441534    -3.351470308370553
    H               -1.723926937764366    -3.321153051441534    -0.967187308370553
    C                0.473149062235634    -1.651446051441534     2.398529691629447
    C                0.336149062235634    -0.061446051441534     0.468529691629447
    C                0.913149062235634    -0.399446051441534     1.687529691629447
    C                0.681149062235634     1.113553948558466    -0.188470308370553
    C                1.602149062235634     1.987553948558466     0.383529691629447
    C                1.806149062235634     0.495553948558466     2.278529691629447
    C                2.133149062235634     1.686553948558466     1.628529691629447
    O                1.967149062235634     3.145553948558466    -0.248470308370553
    H               -0.380850937764366    -0.728446051441534     0.013529691629447
    H                0.236149062235634     1.345553948558466    -1.145470308370553
    H                1.117149062235634    -1.841446051441534     3.259529691629447
    H                0.565149062235634    -2.493446051441534     1.711529691629447
    H                2.231149062235634     0.275553948558466     3.249529691629446
    H                1.527149062235634     3.235553948558465    -1.102470308370553
    H                2.771149062235634     2.408553948558465     2.091529691629447
    H               -0.569783937764366    -1.550169051441534     2.733244991629447

}
e, wfn = energy('scf', return_wfn=True)
gdma(wfn)
dmavals = variable('DMA DISTRIBUTED MULTIPOLES')
charges = np.array(dmavals)
print(charges)
np.save('SSI-065GLN-088TYR-1-dimer.npy', np.array(charges))--------------------------------------------------------------------------

*** tstart() called on ds3
*** at Mon Apr 27 22:19:04 2020

   => Loading Basis Set <=

    Name: CC-PVDZ
    Role: ORBITAL
    Keyword: BASIS
    atoms 1-2, 10-16 entry C          line   138 file /theoryfs2/ds/metcalf/miniconda2/envs/tf2gpu/share/psi4/basis/cc-pvdz.gbs 
    atoms 3, 17      entry O          line   198 file /theoryfs2/ds/metcalf/miniconda2/envs/tf2gpu/share/psi4/basis/cc-pvdz.gbs 
    atoms 4          entry N          line   168 file /theoryfs2/ds/metcalf/miniconda2/envs/tf2gpu/share/psi4/basis/cc-pvdz.gbs 
    atoms 5-9, 18-25 entry H          line    22 file /theoryfs2/ds/metcalf/miniconda2/envs/tf2gpu/share/psi4/basis/cc-pvdz.gbs 


         ---------------------------------------------------------
                                   SCF
               by Justin Turney, Rob Parrish, Andy Simmonett
                          and Daniel G. A. Smith
                              RHF Reference
                        1 Threads,    500 MiB Core
         ---------------------------------------------------------

  ==> Geometry <==

    Molecular point group: c1
    Full point group: C1

    Geometry (in Angstrom), charge = 0, multiplicity = 1:

       Center              X                  Y                   Z               Mass       
    ------------   -----------------  -----------------  -----------------  -----------------
         C           -2.555850937764    -2.891446051442    -1.544470308371    12.000000000000
         C           -2.305850937764    -1.432446051442    -1.857470308371    12.000000000000
         O           -2.847850937764    -0.530446051442    -1.222470308371    15.994914619570
         N           -1.443850937764    -1.188446051442    -2.820470308371    14.003074004430
         H           -2.668850937764    -3.437446051442    -2.482470308371     1.007825032230
         H           -3.483850937764    -2.986446051442    -0.979470308371     1.007825032230
         H           -1.256850937764    -0.226446051442    -3.064470308371     1.007825032230
         H           -1.037850937764    -1.942446051442    -3.351470308371     1.007825032230
         H           -1.723926937764    -3.321153051442    -0.967187308371     1.007825032230
         C            0.473149062236    -1.651446051442     2.398529691629    12.000000000000
         C            0.336149062236    -0.061446051442     0.468529691629    12.000000000000
         C            0.913149062236    -0.399446051442     1.687529691629    12.000000000000
         C            0.681149062236     1.113553948558    -0.188470308371    12.000000000000
         C            1.602149062236     1.987553948558     0.383529691629    12.000000000000
         C            1.806149062236     0.495553948558     2.278529691629    12.000000000000
         C            2.133149062236     1.686553948558     1.628529691629    12.000000000000
         O            1.967149062236     3.145553948558    -0.248470308371    15.994914619570
         H           -0.380850937764    -0.728446051442     0.013529691629     1.007825032230
         H            0.236149062236     1.345553948558    -1.145470308371     1.007825032230
         H            1.117149062236    -1.841446051442     3.259529691629     1.007825032230
         H            0.565149062236    -2.493446051442     1.711529691629     1.007825032230
         H            2.231149062236     0.275553948558     3.249529691629     1.007825032230
         H            1.527149062236     3.235553948558    -1.102470308371     1.007825032230
         H            2.771149062236     2.408553948558     2.091529691629     1.007825032230
         H           -0.569783937764    -1.550169051442     2.733244991629     1.007825032230

  Running in c1 symmetry.

  Rotational constants: A =      0.04223  B =      0.01431  C =      0.01131 [cm^-1]
  Rotational constants: A =   1265.98840  B =    428.89338  C =    339.08136 [MHz]
  Nuclear repulsion =  650.161667775773594

  Charge       = 0
  Multiplicity = 1
  Electrons    = 90
  Nalpha       = 45
  Nbeta        = 45

  ==> Algorithm <==

  SCF Algorithm Type is PK.
  DIIS enabled.
  MOM disabled.
  Fractional occupation disabled.
  Guess Type is SAD.
  Energy threshold   = 1.00e-06
  Density threshold  = 1.00e-10
  Integral threshold = 0.00e+00

  ==> Primary Basis <==

  Basis Set: CC-PVDZ
    Blend: CC-PVDZ
    Number of shells: 111
    Number of basis function: 233
    Number of Cartesian functions: 245
    Spherical Harmonics?: true
    Max angular momentum: 2

  ==> Pre-Iterations <==

   -------------------------------------------------------
    Irrep   Nso     Nmo     Nalpha   Nbeta   Ndocc  Nsocc
   -------------------------------------------------------
     A        233     233       0       0       0       0
   -------------------------------------------------------
    Total     233     233      45      45      45       0
   -------------------------------------------------------

  ==> Integral Setup <==

  Using integral reordering PK algorithm.
  Sizing the integral batches needed.
  Building batch lookup table.
   Calculation information:
      Number of atoms:                  25
      Number of AO shells:             111
      Number of primitives:            329
      Number of atomic orbitals:       245
      Number of basis functions:       233

      Integral cutoff                 1.00e-12
      Number of threads:                 1

	Batch   1 pq = [       0,    9405] index = [             0,44231715] size =     44231715
	Batch   2 pq = [    9405,   13301] index = [      44231715,88464951] size =     44233236
	Batch   3 pq = [   13301,   16290] index = [      88464951,132690195] size =     44225244
	Batch   4 pq = [   16290,   18810] index = [     132690195,176917455] size =     44227260
	Batch   5 pq = [   18810,   21030] index = [     176917455,221140965] size =     44223510
	Batch   6 pq = [   21030,   23037] index = [     221140965,265363203] size =     44222238
	Batch   7 pq = [   23037,   24883] index = [     265363203,309594286] size =     44231083
	Batch   8 pq = [   24883,   26601] index = [     309594286,353819901] size =     44225615
	Batch   9 pq = [   26601,   27261] index = [     353819901,371594691] size =     17774790
  Task number: 34
  Buffer size: 11059200
  Buffer per thread: 2
  We computed 16647082 shell quartets total.
  Whereas there are 19322436 unique shell quartets.

  ==> DiskJK: Disk-Based J/K Matrices <==

    J tasked:                  Yes
    K tasked:                  Yes
    wK tasked:                  No
    Memory [MiB]:              375
    Schwarz Cutoff:          1E-12

    OpenMP threads:              1

  Minimum eigenvalue in the overlap matrix is 3.0832203925E-04.
  Using Symmetric Orthogonalization.

  SCF Guess: Superposition of Atomic Densities via on-the-fly atomic UHF.

  ==> Iterations <==

                        Total Energy        Delta E     RMS |[F,P]|

   @RHF iter SAD:  -551.30468384508151   -5.51305e+02   0.00000e+00 
   @RHF iter   1:  -552.28875687911955   -9.84073e-01   3.23889e-03 DIIS
   @RHF iter   2:  -552.54862419636788   -2.59867e-01   1.70271e-03 DIIS
   @RHF iter   3:  -552.61030887202764   -6.16847e-02   3.92474e-04 DIIS
   @RHF iter   4:  -552.61510944346242   -4.80057e-03   1.56483e-04 DIIS
   @RHF iter   5:  -552.61590111448731   -7.91671e-04   2.41803e-05 DIIS
   @RHF iter   6:  -552.61593960557309   -3.84911e-05   1.13850e-05 DIIS
   @RHF iter   7:  -552.61594624289626   -6.63732e-06   4.22822e-06 DIIS
   @RHF iter   8:  -552.61594760422383   -1.36133e-06   1.68708e-06 DIIS
   @RHF iter   9:  -552.61594778692802   -1.82704e-07   6.46048e-07 DIIS
   @RHF iter  10:  -552.61594781419581   -2.72678e-08   2.15767e-07 DIIS
   @RHF iter  11:  -552.61594781749011   -3.29430e-09   6.52355e-08 DIIS
   @RHF iter  12:  -552.61594781779570   -3.05590e-10   2.91860e-08 DIIS
   @RHF iter  13:  -552.61594781785914   -6.34373e-11   1.15478e-08 DIIS
   @RHF iter  14:  -552.61594781787892   -1.97815e-11   5.52774e-09 DIIS
   @RHF iter  15:  -552.61594781788324   -4.32010e-12   2.38230e-09 DIIS
   @RHF iter  16:  -552.61594781788676   -3.52429e-12   8.17524e-10 DIIS
   @RHF iter  17:  -552.61594781788426    2.50111e-12   3.08016e-10 DIIS
   @RHF iter  18:  -552.61594781788494   -6.82121e-13   8.19924e-11 DIIS
  Energy and wave function converged.


  ==> Post-Iterations <==

    Orbital Energies [Eh]
    ---------------------

    Doubly Occupied:                                                      

       1A    -20.579218     2A    -20.509457     3A    -15.596011  
       4A    -11.352131     5A    -11.292349     6A    -11.247469  
       7A    -11.232778     8A    -11.229051     9A    -11.227195  
      10A    -11.226102    11A    -11.224053    12A    -11.221954  
      13A     -1.392367    14A     -1.375260    15A     -1.227441  
      16A     -1.145289    17A     -1.033268    18A     -1.010763  
      19A     -1.006440    20A     -0.921449    21A     -0.838541  
      22A     -0.808611    23A     -0.794691    24A     -0.737158  
      25A     -0.725548    26A     -0.661984    27A     -0.660115  
      28A     -0.635268    29A     -0.622723    30A     -0.600552  
      31A     -0.581869    32A     -0.578890    33A     -0.574239  
      34A     -0.567445    35A     -0.563594    36A     -0.562143  
      37A     -0.530223    38A     -0.522740    39A     -0.492095  
      40A     -0.477307    41A     -0.461596    42A     -0.416026  
      43A     -0.410728    44A     -0.331255    45A     -0.296410  

    Virtual:                                                              

      46A      0.136861    47A      0.147924    48A      0.163295  
      49A      0.173563    50A      0.182982    51A      0.199762  
      52A      0.204340    53A      0.222440    54A      0.231267  
      55A      0.249992    56A      0.257192    57A      0.264713  
      58A      0.281967    59A      0.297342    60A      0.304945  
      61A      0.337380    62A      0.373306    63A      0.380680  
      64A      0.383248    65A      0.429923    66A      0.456191  
      67A      0.473747    68A      0.494485    69A      0.503473  
      70A      0.515803    71A      0.565617    72A      0.610065  
      73A      0.627653    74A      0.635564    75A      0.645894  
      76A      0.659785    77A      0.670456    78A      0.691456  
      79A      0.693794    80A      0.703750    81A      0.712500  
      82A      0.720349    83A      0.730140    84A      0.741698  
      85A      0.743798    86A      0.750740    87A      0.779040  
      88A      0.784674    89A      0.789327    90A      0.797122  
      91A      0.820455    92A      0.828682    93A      0.847062  
      94A      0.851781    95A      0.859941    96A      0.863383  
      97A      0.875766    98A      0.889836    99A      0.898375  
     100A      0.910230   101A      0.914840   102A      0.923558  
     103A      0.932709   104A      0.939028   105A      0.946706  
     106A      0.963358   107A      0.982215   108A      1.009858  
     109A      1.021255   110A      1.029889   111A      1.057988  
     112A      1.072496   113A      1.106843   114A      1.124196  
     115A      1.131838   116A      1.139397   117A      1.150025  
     118A      1.161948   119A      1.208254   120A      1.216502  
     121A      1.241225   122A      1.263551   123A      1.271457  
     124A      1.290515   125A      1.311452   126A      1.317058  
     127A      1.321394   128A      1.334787   129A      1.345464  
     130A      1.366911   131A      1.368813   132A      1.381045  
     133A      1.387541   134A      1.412258   135A      1.440870  
     136A      1.472092   137A      1.493519   138A      1.496688  
     139A      1.528554   140A      1.548520   141A      1.578171  
     142A      1.619986   143A      1.633874   144A      1.645960  
     145A      1.649935   146A      1.676242   147A      1.694220  
     148A      1.733799   149A      1.738832   150A      1.749816  
     151A      1.792445   152A      1.801350   153A      1.813405  
     154A      1.817477   155A      1.853324   156A      1.868341  
     157A      1.873221   158A      1.889310   159A      1.895709  
     160A      1.903095   161A      1.907048   162A      1.923093  
     163A      1.933010   164A      1.945157   165A      1.953786  
     166A      1.961249   167A      1.967269   168A      1.978086  
     169A      1.988953   170A      2.007913   171A      2.029317  
     172A      2.042399   173A      2.056234   174A      2.068229  
     175A      2.077534   176A      2.088678   177A      2.094490  
     178A      2.132548   179A      2.151723   180A      2.162923  
     181A      2.195048   182A      2.206925   183A      2.220190  
     184A      2.230594   185A      2.257820   186A      2.269387  
     187A      2.284638   188A      2.321854   189A      2.357391  
     190A      2.377592   191A      2.405299   192A      2.440895  
     193A      2.448099   194A      2.463320   195A      2.482592  
     196A      2.509476   197A      2.524264   198A      2.535631  
     199A      2.544667   200A      2.561723   201A      2.580706  
     202A      2.608567   203A      2.625485   204A      2.643065  
     205A      2.723616   206A      2.737396   207A      2.767173  
     208A      2.777990   209A      2.786462   210A      2.807798  
     211A      2.839524   212A      2.844692   213A      2.870554  
     214A      2.900534   215A      2.972913   216A      2.997150  
     217A      3.025941   218A      3.089417   219A      3.098874  
     220A      3.124715   221A      3.138681   222A      3.252983  
     223A      3.280961   224A      3.311824   225A      3.348015  
     226A      3.494271   227A      3.537182   228A      3.579995  
     229A      3.678115   230A      3.866379   231A      3.907349  
     232A      3.971224   233A      4.194289  

    Final Occupation by Irrep:
              A 
    DOCC [    45 ]

  @RHF Final Energy:  -552.61594781788494

   => Energetics <=

    Nuclear Repulsion Energy =            650.1616677757735943
    One-Electron Energy =               -2042.5516418134807282
    Two-Electron Energy =                 839.7740262198221899
    Total Energy =                       -552.6159478178849440

Computation Completed


Properties will be evaluated at   0.000000,   0.000000,   0.000000 [a0]

Properties computed using the SCF density matrix

  Nuclear Dipole Moment: [e a0]
     X:    -2.5069      Y:   -10.5420      Z:    -0.0309

  Electronic Dipole Moment: [e a0]
     X:     2.8470      Y:     9.2221      Z:    -1.3884

  Dipole Moment: [e a0]
     X:     0.3401      Y:    -1.3198      Z:    -1.4193     Total:     1.9678

  Dipole Moment: [D]
     X:     0.8645      Y:    -3.3547      Z:    -3.6075     Total:     5.0016


*** tstop() called on ds3 at Mon Apr 27 22:23:21 2020
Module time:
	user time   =     130.37 seconds =       2.17 minutes
	system time =      57.48 seconds =       0.96 minutes
	total time  =        257 seconds =       4.28 minutes
Total time:
	user time   =     130.37 seconds =       2.17 minutes
	system time =      57.48 seconds =       0.96 minutes
	total time  =        257 seconds =       4.28 minutes
                                     G D M A

                                 by Anthony Stone

                           version 2.2.06, 22 June 2011

               Distributed Multipoles from Gaussian wavefunctions


Starting at 22:23:21 on 27 Apr 2020 


Using SCF density matrix from file ./SSI/SSI-065GLN-088TYR-1-dimer.test.8724.fchk


                         Distributed Multipole Analysis

Standard DMA

Positions and radii in angstrom
Multipole moments in atomic units, ea_0^k for rank k

C          x = -2.555851  y = -2.891446  z = -1.544470 angstrom
           Maximum rank =  0   Radius =  0.650 angstrom
                   Q00  =  -0.265033

C          x = -2.305851  y = -1.432446  z = -1.857470 angstrom
           Maximum rank =  0   Radius =  0.650 angstrom
                   Q00  =   0.809704

O          x = -2.847851  y = -0.530446  z = -1.222470 angstrom
           Maximum rank =  0   Radius =  0.650 angstrom
                   Q00  =  -0.795691

N          x = -1.443851  y = -1.188446  z = -2.820470 angstrom
           Maximum rank =  0   Radius =  0.650 angstrom
                   Q00  =  -0.516124

H          x = -2.668851  y = -3.437446  z = -2.482470 angstrom
           Maximum rank =  0   Radius =  0.325 angstrom
                   Q00  =   0.090731

H          x = -3.483851  y = -2.986446  z = -0.979470 angstrom
           Maximum rank =  0   Radius =  0.325 angstrom
                   Q00  =   0.130931

H          x = -1.256851  y = -0.226446  z = -3.064470 angstrom
           Maximum rank =  0   Radius =  0.325 angstrom
                   Q00  =   0.221525

H          x = -1.037851  y = -1.942446  z = -3.351470 angstrom
           Maximum rank =  0   Radius =  0.325 angstrom
                   Q00  =   0.207440

H          x = -1.723927  y = -3.321153  z = -0.967187 angstrom
           Maximum rank =  0   Radius =  0.325 angstrom
                   Q00  =   0.120736

C          x =  0.473149  y = -1.651446  z =  2.398530 angstrom
           Maximum rank =  0   Radius =  0.650 angstrom
                   Q00  =  -0.194411

C          x =  0.336149  y = -0.061446  z =  0.468530 angstrom
           Maximum rank =  0   Radius =  0.650 angstrom
                   Q00  =   0.075124

C          x =  0.913149  y = -0.399446  z =  1.687530 angstrom
           Maximum rank =  0   Radius =  0.650 angstrom
                   Q00  =  -0.149724

C          x =  0.681149  y =  1.113554  z = -0.188470 angstrom
           Maximum rank =  0   Radius =  0.650 angstrom
                   Q00  =  -0.184040

C          x =  1.602149  y =  1.987554  z =  0.383530 angstrom
           Maximum rank =  0   Radius =  0.650 angstrom
                   Q00  =   0.297040

C          x =  1.806149  y =  0.495554  z =  2.278530 angstrom
           Maximum rank =  0   Radius =  0.650 angstrom
                   Q00  =  -0.050360

C          x =  2.133149  y =  1.686554  z =  1.628530 angstrom
           Maximum rank =  0   Radius =  0.650 angstrom
                   Q00  =  -0.073504

O          x =  1.967149  y =  3.145554  z = -0.248470 angstrom
           Maximum rank =  0   Radius =  0.650 angstrom
                   Q00  =  -0.679898

H          x = -0.380851  y = -0.728446  z =  0.013530 angstrom
           Maximum rank =  0   Radius =  0.325 angstrom
                   Q00  =   0.061205

H          x =  0.236149  y =  1.345554  z = -1.145470 angstrom
           Maximum rank =  0   Radius =  0.325 angstrom
                   Q00  =   0.060411

H          x =  1.117149  y = -1.841446  z =  3.259530 angstrom
           Maximum rank =  0   Radius =  0.325 angstrom
                   Q00  =   0.096150

H          x =  0.565149  y = -2.493446  z =  1.711530 angstrom
           Maximum rank =  0   Radius =  0.325 angstrom
                   Q00  =   0.088989

H          x =  2.231149  y =  0.275554  z =  3.249530 angstrom
           Maximum rank =  0   Radius =  0.325 angstrom
                   Q00  =   0.063271

H          x =  1.527149  y =  3.235554  z = -1.102470 angstrom
           Maximum rank =  0   Radius =  0.325 angstrom
                   Q00  =   0.404065

H          x =  2.771149  y =  2.408554  z =  2.091530 angstrom
           Maximum rank =  0   Radius =  0.325 angstrom
                   Q00  =   0.077779

H          x = -0.569784  y = -1.550169  z =  2.733245 angstrom
           Maximum rank =  0   Radius =  0.325 angstrom
                   Q00  =   0.103685

Total multipoles referred to origin at
           x =   0.000000,  y =    0.000000,  z =    0.000000 angstrom
                   Q00  =  -0.000000

Finished at 22:23:22 on 27 Apr 2020 

  DMA results are available in the Python driver through the
	  variable('DMA DISTRIBUTED MULTIPOLES')
  and
	  variable('DMA TOTAL MULTIPOLES')
  commands.


    Psi4 stopped on: Monday, 27 April 2020 10:23PM
    Psi4 wall time for execution: 0:04:17.45

*** Psi4 exiting successfully. Buy a developer a beer!
