
    -----------------------------------------------------------------------
          Psi4: An Open-Source Ab Initio Electronic Structure Package
                               Psi4 1.3.2 release

                         Git: Rev {HEAD} ecbda83 


    R. M. Parrish, L. A. Burns, D. G. A. Smith, A. C. Simmonett,
    A. E. DePrince III, E. G. Hohenstein, U. Bozkaya, A. Yu. Sokolov,
    R. Di Remigio, R. M. Richard, J. F. Gonthier, A. M. James,
    H. R. McAlexander, A. Kumar, M. Saitow, X. Wang, B. P. Pritchard,
    P. Verma, H. F. Schaefer III, K. Patkowski, R. A. King, E. F. Valeev,
    F. A. Evangelista, J. M. Turney, T. D. Crawford, and C. D. Sherrill,
    J. Chem. Theory Comput. 13(7) pp 3185--3197 (2017).
    (doi: 10.1021/acs.jctc.7b00174)


                         Additional Contributions by
    P. Kraus, H. Kruse, M. H. Lechner, M. C. Schieber, R. A. Shaw,
    A. Alenaizan, R. Galvelis, Z. L. Glick, S. Lehtola, and J. P. Misiewicz

    -----------------------------------------------------------------------


    Psi4 started on: Monday, 27 April 2020 08:06AM

    Process ID: 637
    Host:       ds3
    PSIDATADIR: /theoryfs2/ds/metcalf/miniconda2/envs/tf2gpu/share/psi4
    Memory:     500.0 MiB
    Threads:    1
    
  ==> Input File <==

--------------------------------------------------------------------------
import numpy as np
set {scf_type pk
basis cc-pvdz
d_convergence 10
gdma_switch   0
gdma_limit    0
gdma_origin   [ 0.0,  0.0,  0.0 ]
}
molecule test {
    units Angstrom
    -1 1
    --
    -1 1
    C                1.553169728152510    -2.001328132403610    -0.207545558830109
    C                0.579169728152510    -3.040328132403610     0.325454441169891
    H                1.048169728152510    -1.299328132403610    -0.866545558830109
    H                1.995169728152510    -1.455328132403610     0.626454441169891
    H                2.350169728152510    -2.500328132403610    -0.758545558830109
    H                1.129169728152510    -3.728328132403610     0.969454441169891
    H                0.118529728152510    -3.601828132403610    -0.500698558830109
    H               -0.191990271847490    -2.531358132403610     0.922333441169891
    C               -0.728830271847490     0.989671867596390    -1.425545558830109
    C               -0.539830271847490     1.306671867596390     0.050454441169891
    O               -0.521830271847490     0.342671867596390     0.854454441169891
    O               -0.389830271847490     2.501671867596390     0.404454441169891
    H               -1.405830271847490     0.142671867596390    -1.535545558830109
    H                0.235169728152510     0.684671867596390    -1.840545558830109
    H               -1.093520271847490     1.835321867596390    -2.027105558830109

}
e, wfn = energy('scf', return_wfn=True)
gdma(wfn)
dmavals = variable('DMA DISTRIBUTED MULTIPOLES')
charges = np.array(dmavals)
print(charges)
np.save('SSI-011THR-166GLU-1-dimer.npy', np.array(charges))--------------------------------------------------------------------------

*** tstart() called on ds3
*** at Mon Apr 27 08:06:39 2020

   => Loading Basis Set <=

    Name: CC-PVDZ
    Role: ORBITAL
    Keyword: BASIS
    atoms 1-2, 9-10  entry C          line   138 file /theoryfs2/ds/metcalf/miniconda2/envs/tf2gpu/share/psi4/basis/cc-pvdz.gbs 
    atoms 3-8, 13-15 entry H          line    22 file /theoryfs2/ds/metcalf/miniconda2/envs/tf2gpu/share/psi4/basis/cc-pvdz.gbs 
    atoms 11-12      entry O          line   198 file /theoryfs2/ds/metcalf/miniconda2/envs/tf2gpu/share/psi4/basis/cc-pvdz.gbs 


         ---------------------------------------------------------
                                   SCF
               by Justin Turney, Rob Parrish, Andy Simmonett
                          and Daniel G. A. Smith
                              RHF Reference
                        1 Threads,    500 MiB Core
         ---------------------------------------------------------

  ==> Geometry <==

    Molecular point group: c1
    Full point group: C1

    Geometry (in Angstrom), charge = -1, multiplicity = 1:

       Center              X                  Y                   Z               Mass       
    ------------   -----------------  -----------------  -----------------  -----------------
         C            1.553169728153    -2.001328132404    -0.207545558830    12.000000000000
         C            0.579169728153    -3.040328132404     0.325454441170    12.000000000000
         H            1.048169728153    -1.299328132404    -0.866545558830     1.007825032230
         H            1.995169728153    -1.455328132404     0.626454441170     1.007825032230
         H            2.350169728153    -2.500328132404    -0.758545558830     1.007825032230
         H            1.129169728153    -3.728328132404     0.969454441170     1.007825032230
         H            0.118529728153    -3.601828132404    -0.500698558830     1.007825032230
         H           -0.191990271847    -2.531358132404     0.922333441170     1.007825032230
         C           -0.728830271847     0.989671867596    -1.425545558830    12.000000000000
         C           -0.539830271847     1.306671867596     0.050454441170    12.000000000000
         O           -0.521830271847     0.342671867596     0.854454441170    15.994914619570
         O           -0.389830271847     2.501671867596     0.404454441170    15.994914619570
         H           -1.405830271847     0.142671867596    -1.535545558830     1.007825032230
         H            0.235169728153     0.684671867596    -1.840545558830     1.007825032230
         H           -1.093520271847     1.835321867596    -2.027105558830     1.007825032230

  Running in c1 symmetry.

  Rotational constants: A =      0.21070  B =      0.04152  C =      0.03886 [cm^-1]
  Rotational constants: A =   6316.52411  B =   1244.83788  C =   1164.97001 [MHz]
  Nuclear repulsion =  224.984336857099066

  Charge       = -1
  Multiplicity = 1
  Electrons    = 50
  Nalpha       = 25
  Nbeta        = 25

  ==> Algorithm <==

  SCF Algorithm Type is PK.
  DIIS enabled.
  MOM disabled.
  Fractional occupation disabled.
  Guess Type is SAD.
  Energy threshold   = 1.00e-06
  Density threshold  = 1.00e-10
  Integral threshold = 0.00e+00

  ==> Primary Basis <==

  Basis Set: CC-PVDZ
    Blend: CC-PVDZ
    Number of shells: 63
    Number of basis function: 129
    Number of Cartesian functions: 135
    Spherical Harmonics?: true
    Max angular momentum: 2

  ==> Pre-Iterations <==

   -------------------------------------------------------
    Irrep   Nso     Nmo     Nalpha   Nbeta   Ndocc  Nsocc
   -------------------------------------------------------
     A        129     129       0       0       0       0
   -------------------------------------------------------
    Total     129     129      25      25      25       0
   -------------------------------------------------------

  ==> Integral Setup <==

  Using integral reordering PK algorithm.
  Sizing the integral batches needed.
  Building batch lookup table.
   Calculation information:
      Number of atoms:                  15
      Number of AO shells:              63
      Number of primitives:            177
      Number of atomic orbitals:       135
      Number of basis functions:       129

      Integral cutoff                 1.00e-12
      Number of threads:                 1

	Batch   1 pq = [       0,    8385] index = [             0,35158305] size =     35158305
  Task number: 4
  Buffer size: 11059200
  Buffer per thread: 2
  We computed 1801174 shell quartets total.
  Whereas there are 2033136 unique shell quartets.

  ==> DiskJK: Disk-Based J/K Matrices <==

    J tasked:                  Yes
    K tasked:                  Yes
    wK tasked:                  No
    Memory [MiB]:              375
    Schwarz Cutoff:          1E-12

    OpenMP threads:              1

  Minimum eigenvalue in the overlap matrix is 5.4750781999E-03.
  Using Symmetric Orthogonalization.

  SCF Guess: Superposition of Atomic Densities via on-the-fly atomic UHF.

  ==> Iterations <==

                        Total Energy        Delta E     RMS |[F,P]|

   @RHF iter SAD:  -304.84977001063857   -3.04850e+02   0.00000e+00 
   @RHF iter   1:  -306.20881141950588   -1.35904e+00   5.68009e-03 DIIS
   @RHF iter   2:  -306.40998390679232   -2.01172e-01   3.22505e-03 DIIS
   @RHF iter   3:  -306.47379866059441   -6.38148e-02   4.78421e-04 DIIS
   @RHF iter   4:  -306.47639814058732   -2.59948e-03   1.78919e-04 DIIS
   @RHF iter   5:  -306.47678811541789   -3.89975e-04   2.61248e-05 DIIS
   @RHF iter   6:  -306.47679872229907   -1.06069e-05   6.42994e-06 DIIS
   @RHF iter   7:  -306.47679930666794   -5.84369e-07   2.80786e-06 DIIS
   @RHF iter   8:  -306.47679938614743   -7.94795e-08   8.37419e-07 DIIS
   @RHF iter   9:  -306.47679940033726   -1.41898e-08   4.49154e-07 DIIS
   @RHF iter  10:  -306.47679940425672   -3.91947e-09   1.36467e-07 DIIS
   @RHF iter  11:  -306.47679940488865   -6.31928e-10   3.07740e-08 DIIS
   @RHF iter  12:  -306.47679940491395   -2.52953e-11   6.88291e-09 DIIS
   @RHF iter  13:  -306.47679940491668   -2.72848e-12   2.08655e-09 DIIS
   @RHF iter  14:  -306.47679940491594    7.38964e-13   6.46586e-10 DIIS
   @RHF iter  15:  -306.47679940491571    2.27374e-13   2.39627e-10 DIIS
   @RHF iter  16:  -306.47679940491548    2.27374e-13   8.41120e-11 DIIS
  Energy and wave function converged.


  ==> Post-Iterations <==

    Orbital Energies [Eh]
    ---------------------

    Doubly Occupied:                                                      

       1A    -20.258800     2A    -20.255893     3A    -11.115718  
       4A    -11.095165     5A    -11.085467     6A    -11.050508  
       7A     -1.143539     8A     -1.031344     9A     -0.892797  
      10A     -0.796185    11A     -0.708652    12A     -0.501350  
      13A     -0.474166    14A     -0.470224    15A     -0.409263  
      16A     -0.406677    17A     -0.399336    18A     -0.373563  
      19A     -0.359553    20A     -0.355509    21A     -0.339716  
      22A     -0.299657    23A     -0.181321    24A     -0.169268  
      25A     -0.157983  

    Virtual:                                                              

      26A      0.306355    27A      0.346754    28A      0.358315  
      29A      0.371067    30A      0.391219    31A      0.405109  
      32A      0.415584    33A      0.425292    34A      0.460772  
      35A      0.495621    36A      0.520892    37A      0.580657  
      38A      0.679955    39A      0.706436    40A      0.727083  
      41A      0.728658    42A      0.758110    43A      0.802399  
      44A      0.808964    45A      0.843508    46A      0.920160  
      47A      0.956254    48A      0.969635    49A      0.976522  
      50A      1.010568    51A      1.011985    52A      1.017762  
      53A      1.034495    54A      1.040316    55A      1.056098  
      56A      1.061503    57A      1.075701    58A      1.107760  
      59A      1.134481    60A      1.175835    61A      1.225311  
      62A      1.254109    63A      1.261184    64A      1.337360  
      65A      1.347555    66A      1.403715    67A      1.431697  
      68A      1.532104    69A      1.559087    70A      1.586457  
      71A      1.603095    72A      1.610440    73A      1.625005  
      74A      1.647417    75A      1.670414    76A      1.745902  
      77A      1.759622    78A      1.801219    79A      1.825302  
      80A      1.848668    81A      1.864544    82A      1.979228  
      83A      2.003423    84A      2.020820    85A      2.054653  
      86A      2.070180    87A      2.076561    88A      2.089574  
      89A      2.093905    90A      2.097952    91A      2.105724  
      92A      2.131077    93A      2.178463    94A      2.206757  
      95A      2.235273    96A      2.243367    97A      2.268649  
      98A      2.354404    99A      2.413691   100A      2.425623  
     101A      2.436855   102A      2.452109   103A      2.555773  
     104A      2.587662   105A      2.596443   106A      2.678070  
     107A      2.696626   108A      2.702793   109A      2.722568  
     110A      2.776824   111A      2.889665   112A      2.914583  
     113A      2.928888   114A      2.975807   115A      2.977924  
     116A      2.988585   117A      2.997145   118A      3.082541  
     119A      3.107316   120A      3.249101   121A      3.278753  
     122A      3.298686   123A      3.361095   124A      3.629963  
     125A      3.784259   126A      3.834566   127A      4.051349  
     128A      4.096063   129A      4.187200  

    Final Occupation by Irrep:
              A 
    DOCC [    25 ]

  @RHF Final Energy:  -306.47679940491548

   => Energetics <=

    Nuclear Repulsion Energy =            224.9843368570990663
    One-Electron Energy =                -874.2589676667855656
    Two-Electron Energy =                 342.7978314047710455
    Total Energy =                       -306.4767994049154822

Computation Completed


Properties will be evaluated at   0.000000,   0.000000,   0.000000 [a0]

Properties computed using the SCF density matrix

  Nuclear Dipole Moment: [e a0]
     X:     3.9190      Y:   -11.6614      Z:    -4.6914

  Electronic Dipole Moment: [e a0]
     X:    -3.2695      Y:     9.3687      Z:     3.3705

  Dipole Moment: [e a0]
     X:     0.6495      Y:    -2.2927      Z:    -1.3209     Total:     2.7245

  Dipole Moment: [D]
     X:     1.6508      Y:    -5.8275      Z:    -3.3573     Total:     6.9251


*** tstop() called on ds3 at Mon Apr 27 08:07:21 2020
Module time:
	user time   =      13.27 seconds =       0.22 minutes
	system time =       4.55 seconds =       0.08 minutes
	total time  =         42 seconds =       0.70 minutes
Total time:
	user time   =      13.27 seconds =       0.22 minutes
	system time =       4.55 seconds =       0.08 minutes
	total time  =         42 seconds =       0.70 minutes
                                     G D M A

                                 by Anthony Stone

                           version 2.2.06, 22 June 2011

               Distributed Multipoles from Gaussian wavefunctions


Starting at 8:7:21 on 27 Apr 2020   


Using SCF density matrix from file ./SSI/SSI-011THR-166GLU-1-dimer.test.637.fchk


                         Distributed Multipole Analysis

Standard DMA

Positions and radii in angstrom
Multipole moments in atomic units, ea_0^k for rank k

C          x =  1.553170  y = -2.001328  z = -0.207546 angstrom
           Maximum rank =  0   Radius =  0.650 angstrom
                   Q00  =  -0.201093

C          x =  0.579170  y = -3.040328  z =  0.325454 angstrom
           Maximum rank =  0   Radius =  0.650 angstrom
                   Q00  =  -0.221008

H          x =  1.048170  y = -1.299328  z = -0.866546 angstrom
           Maximum rank =  0   Radius =  0.325 angstrom
                   Q00  =   0.108246

H          x =  1.995170  y = -1.455328  z =  0.626454 angstrom
           Maximum rank =  0   Radius =  0.325 angstrom
                   Q00  =   0.093760

H          x =  2.350170  y = -2.500328  z = -0.758546 angstrom
           Maximum rank =  0   Radius =  0.325 angstrom
                   Q00  =   0.012721

H          x =  1.129170  y = -3.728328  z =  0.969454 angstrom
           Maximum rank =  0   Radius =  0.325 angstrom
                   Q00  =   0.038891

H          x =  0.118530  y = -3.601828  z = -0.500699 angstrom
           Maximum rank =  0   Radius =  0.325 angstrom
                   Q00  =   0.046985

H          x = -0.191990  y = -2.531358  z =  0.922333 angstrom
           Maximum rank =  0   Radius =  0.325 angstrom
                   Q00  =   0.111925

C          x = -0.728830  y =  0.989672  z = -1.425546 angstrom
           Maximum rank =  0   Radius =  0.650 angstrom
                   Q00  =  -0.289380

C          x = -0.539830  y =  1.306672  z =  0.050454 angstrom
           Maximum rank =  0   Radius =  0.650 angstrom
                   Q00  =   0.976888

O          x = -0.521830  y =  0.342672  z =  0.854454 angstrom
           Maximum rank =  0   Radius =  0.650 angstrom
                   Q00  =  -0.937448

O          x = -0.389830  y =  2.501672  z =  0.404454 angstrom
           Maximum rank =  0   Radius =  0.650 angstrom
                   Q00  =  -0.925962

H          x = -1.405830  y =  0.142672  z = -1.535546 angstrom
           Maximum rank =  0   Radius =  0.325 angstrom
                   Q00  =   0.056624

H          x =  0.235170  y =  0.684672  z = -1.840546 angstrom
           Maximum rank =  0   Radius =  0.325 angstrom
                   Q00  =   0.075721

H          x = -1.093520  y =  1.835322  z = -2.027106 angstrom
           Maximum rank =  0   Radius =  0.325 angstrom
                   Q00  =   0.053129

Total multipoles referred to origin at
           x =   0.000000,  y =    0.000000,  z =    0.000000 angstrom
                   Q00  =  -1.000000

Finished at 8:7:21 on 27 Apr 2020   

  DMA results are available in the Python driver through the
	  variable('DMA DISTRIBUTED MULTIPOLES')
  and
	  variable('DMA TOTAL MULTIPOLES')
  commands.


    Psi4 stopped on: Monday, 27 April 2020 08:07AM
    Psi4 wall time for execution: 0:00:41.49

*** Psi4 exiting successfully. Buy a developer a beer!
