
    -----------------------------------------------------------------------
          Psi4: An Open-Source Ab Initio Electronic Structure Package
                               Psi4 1.3.2 release

                         Git: Rev {HEAD} ecbda83 


    R. M. Parrish, L. A. Burns, D. G. A. Smith, A. C. Simmonett,
    A. E. DePrince III, E. G. Hohenstein, U. Bozkaya, A. Yu. Sokolov,
    R. Di Remigio, R. M. Richard, J. F. Gonthier, A. M. James,
    H. R. McAlexander, A. Kumar, M. Saitow, X. Wang, B. P. Pritchard,
    P. Verma, H. F. Schaefer III, K. Patkowski, R. A. King, E. F. Valeev,
    F. A. Evangelista, J. M. Turney, T. D. Crawford, and C. D. Sherrill,
    J. Chem. Theory Comput. 13(7) pp 3185--3197 (2017).
    (doi: 10.1021/acs.jctc.7b00174)


                         Additional Contributions by
    P. Kraus, H. Kruse, M. H. Lechner, M. C. Schieber, R. A. Shaw,
    A. Alenaizan, R. Galvelis, Z. L. Glick, S. Lehtola, and J. P. Misiewicz

    -----------------------------------------------------------------------


    Psi4 started on: Monday, 27 April 2020 09:45PM

    Process ID: 20584
    Host:       ds3
    PSIDATADIR: /theoryfs2/ds/metcalf/miniconda2/envs/tf2gpu/share/psi4
    Memory:     500.0 MiB
    Threads:    1
    
  ==> Input File <==

--------------------------------------------------------------------------
import numpy as np
set {scf_type pk
basis cc-pvdz
d_convergence 10
gdma_switch   0
gdma_limit    0
gdma_origin   [ 0.0,  0.0,  0.0 ]
}
molecule test {
    units Angstrom
    0 1
    --
    0 1
    C                0.050127770950666     0.082577063002453    -1.546511290342716
    C                0.493127770950666    -0.623422936997547    -2.826511290342716
    C               -0.192872229049334    -0.880422936997547    -0.408511290342716
    C                0.889127770950666    -1.415422936997546     0.319488709657284
    C               -1.491872229049334    -1.292422936997547    -0.098511290342716
    C                0.650127770950666    -2.353422936997546     1.323488709657284
    C               -1.734872229049334    -2.236422936997547     0.923488709657284
    C               -0.647872229049334    -2.772422936997546     1.628488709657284
    H                0.823127770950666     0.763577063002453    -1.245511290342716
    H               -0.856872229049334     0.659577063002453    -1.733511290342716
    H                1.480127770950666    -1.061422936997546    -2.663511290342716
    H                1.903127770950666    -1.113422936997547     0.096488709657284
    H               -2.329872229049333    -0.901422936997546    -0.659511290342716
    H                1.484127770950666    -2.765422936997546     1.877488709657284
    H               -2.743872229049333    -2.557422936997547     1.144488709657284
    H               -0.828872229049334    -3.516422936997546     2.383488709657284
    H                0.539137770950667     0.084087063002453    -3.667529290342716
    H               -0.214962229049334    -1.442562936997546    -3.020479290342716
    C                0.531127770950666     3.599577063002453    -0.223511290342716
    C               -0.514872229049333     3.841577063002453     0.871488709657284
    C                1.653127770950666     2.772577063002454     0.374488709657284
    H                0.067127770950666     3.085577063002453    -1.064511290342716
    H                0.939127770950666     4.545577063002454    -0.557511290342716
    H               -0.003872229049334     3.957577063002453     1.831488709657284
    H                2.147127770950667     3.359577063002454     1.145488709657284
    H                1.222127770950666     1.891577063002454     0.852488709657284
    H               -1.246762229049334     3.021677063002453     0.917372909657284
    H               -1.041742229049333     4.787047063002453     0.675273809657284
    H                2.419397770950666     2.415037063002454    -0.329067290342716

}
e, wfn = energy('scf', return_wfn=True)
gdma(wfn)
dmavals = variable('DMA DISTRIBUTED MULTIPOLES')
charges = np.array(dmavals)
print(charges)
np.save('SSI-055PHE-141GLN-1-dimer.npy', np.array(charges))--------------------------------------------------------------------------

*** tstart() called on ds3
*** at Mon Apr 27 21:45:28 2020

   => Loading Basis Set <=

    Name: CC-PVDZ
    Role: ORBITAL
    Keyword: BASIS
    atoms 1-8, 19-21  entry C          line   138 file /theoryfs2/ds/metcalf/miniconda2/envs/tf2gpu/share/psi4/basis/cc-pvdz.gbs 
    atoms 9-18, 22-29 entry H          line    22 file /theoryfs2/ds/metcalf/miniconda2/envs/tf2gpu/share/psi4/basis/cc-pvdz.gbs 


         ---------------------------------------------------------
                                   SCF
               by Justin Turney, Rob Parrish, Andy Simmonett
                          and Daniel G. A. Smith
                              RHF Reference
                        1 Threads,    500 MiB Core
         ---------------------------------------------------------

  ==> Geometry <==

    Molecular point group: c1
    Full point group: C1

    Geometry (in Angstrom), charge = 0, multiplicity = 1:

       Center              X                  Y                   Z               Mass       
    ------------   -----------------  -----------------  -----------------  -----------------
         C            0.050127770951     0.082577063002    -1.546511290343    12.000000000000
         C            0.493127770951    -0.623422936998    -2.826511290343    12.000000000000
         C           -0.192872229049    -0.880422936998    -0.408511290343    12.000000000000
         C            0.889127770951    -1.415422936998     0.319488709657    12.000000000000
         C           -1.491872229049    -1.292422936998    -0.098511290343    12.000000000000
         C            0.650127770951    -2.353422936998     1.323488709657    12.000000000000
         C           -1.734872229049    -2.236422936998     0.923488709657    12.000000000000
         C           -0.647872229049    -2.772422936998     1.628488709657    12.000000000000
         H            0.823127770951     0.763577063002    -1.245511290343     1.007825032230
         H           -0.856872229049     0.659577063002    -1.733511290343     1.007825032230
         H            1.480127770951    -1.061422936998    -2.663511290343     1.007825032230
         H            1.903127770951    -1.113422936998     0.096488709657     1.007825032230
         H           -2.329872229049    -0.901422936998    -0.659511290343     1.007825032230
         H            1.484127770951    -2.765422936998     1.877488709657     1.007825032230
         H           -2.743872229049    -2.557422936998     1.144488709657     1.007825032230
         H           -0.828872229049    -3.516422936998     2.383488709657     1.007825032230
         H            0.539137770951     0.084087063002    -3.667529290343     1.007825032230
         H           -0.214962229049    -1.442562936998    -3.020479290343     1.007825032230
         C            0.531127770951     3.599577063002    -0.223511290343    12.000000000000
         C           -0.514872229049     3.841577063002     0.871488709657    12.000000000000
         C            1.653127770951     2.772577063002     0.374488709657    12.000000000000
         H            0.067127770951     3.085577063002    -1.064511290343     1.007825032230
         H            0.939127770951     4.545577063002    -0.557511290343     1.007825032230
         H           -0.003872229049     3.957577063002     1.831488709657     1.007825032230
         H            2.147127770951     3.359577063002     1.145488709657     1.007825032230
         H            1.222127770951     1.891577063002     0.852488709657     1.007825032230
         H           -1.246762229049     3.021677063002     0.917372909657     1.007825032230
         H           -1.041742229049     4.787047063002     0.675273809657     1.007825032230
         H            2.419397770951     2.415037063002    -0.329067290343     1.007825032230

  Running in c1 symmetry.

  Rotational constants: A =      0.04301  B =      0.01690  C =      0.01505 [cm^-1]
  Rotational constants: A =   1289.32206  B =    506.61177  C =    451.25970 [MHz]
  Nuclear repulsion =  577.150880396147159

  Charge       = 0
  Multiplicity = 1
  Electrons    = 84
  Nalpha       = 42
  Nbeta        = 42

  ==> Algorithm <==

  SCF Algorithm Type is PK.
  DIIS enabled.
  MOM disabled.
  Fractional occupation disabled.
  Guess Type is SAD.
  Energy threshold   = 1.00e-06
  Density threshold  = 1.00e-10
  Integral threshold = 0.00e+00

  ==> Primary Basis <==

  Basis Set: CC-PVDZ
    Blend: CC-PVDZ
    Number of shells: 120
    Number of basis function: 244
    Number of Cartesian functions: 255
    Spherical Harmonics?: true
    Max angular momentum: 2

  ==> Pre-Iterations <==

   -------------------------------------------------------
    Irrep   Nso     Nmo     Nalpha   Nbeta   Ndocc  Nsocc
   -------------------------------------------------------
     A        244     244       0       0       0       0
   -------------------------------------------------------
    Total     244     244      42      42      42       0
   -------------------------------------------------------

  ==> Integral Setup <==

  Using integral reordering PK algorithm.
  Sizing the integral batches needed.
  Building batch lookup table.
   Calculation information:
      Number of atoms:                  29
      Number of AO shells:             120
      Number of primitives:            332
      Number of atomic orbitals:       255
      Number of basis functions:       244

      Integral cutoff                 1.00e-12
      Number of threads:                 1

	Batch   1 pq = [       0,    9405] index = [             0,44231715] size =     44231715
	Batch   2 pq = [    9405,   13301] index = [      44231715,88464951] size =     44233236
	Batch   3 pq = [   13301,   16290] index = [      88464951,132690195] size =     44225244
	Batch   4 pq = [   16290,   18810] index = [     132690195,176917455] size =     44227260
	Batch   5 pq = [   18810,   21030] index = [     176917455,221140965] size =     44223510
	Batch   6 pq = [   21030,   23037] index = [     221140965,265363203] size =     44222238
	Batch   7 pq = [   23037,   24883] index = [     265363203,309594286] size =     44231083
	Batch   8 pq = [   24883,   26601] index = [     309594286,353819901] size =     44225615
	Batch   9 pq = [   26601,   28214] index = [     353819901,398029005] size =     44209104
	Batch  10 pq = [   28214,   29740] index = [     398029005,442248670] size =     44219665
	Batch  11 pq = [   29740,   29890] index = [     442248670,446720995] size =      4472325
  Task number: 41
  Buffer size: 11059200
  Buffer per thread: 2
  We computed 25976168 shell quartets total.
  Whereas there are 26357430 unique shell quartets.

  ==> DiskJK: Disk-Based J/K Matrices <==

    J tasked:                  Yes
    K tasked:                  Yes
    wK tasked:                  No
    Memory [MiB]:              375
    Schwarz Cutoff:          1E-12

    OpenMP threads:              1

  Minimum eigenvalue in the overlap matrix is 3.2975719084E-04.
  Using Symmetric Orthogonalization.

  SCF Guess: Superposition of Atomic Densities via on-the-fly atomic UHF.

  ==> Iterations <==

                        Total Energy        Delta E     RMS |[F,P]|

   @RHF iter SAD:  -425.84618509100329   -4.25846e+02   0.00000e+00 
   @RHF iter   1:  -426.77922062748473   -9.33036e-01   2.59131e-03 DIIS
   @RHF iter   2:  -427.01826772919139   -2.39047e-01   1.09244e-03 DIIS
   @RHF iter   3:  -427.05705241649321   -3.87847e-02   2.40880e-04 DIIS
   @RHF iter   4:  -427.06031918768502   -3.26677e-03   5.57210e-05 DIIS
   @RHF iter   5:  -427.06043508803828   -1.15900e-04   1.97728e-05 DIIS
   @RHF iter   6:  -427.06045042082860   -1.53328e-05   4.35685e-06 DIIS
   @RHF iter   7:  -427.06045139495728   -9.74129e-07   1.24494e-06 DIIS
   @RHF iter   8:  -427.06045149488898   -9.99317e-08   4.16583e-07 DIIS
   @RHF iter   9:  -427.06045151971955   -2.48306e-08   2.01855e-07 DIIS
   @RHF iter  10:  -427.06045152729735   -7.57780e-09   9.83517e-08 DIIS
   @RHF iter  11:  -427.06045152907882   -1.78147e-09   2.83963e-08 DIIS
   @RHF iter  12:  -427.06045152918381   -1.04990e-10   1.05443e-08 DIIS
   @RHF iter  13:  -427.06045152919540   -1.15961e-11   4.68301e-09 DIIS
   @RHF iter  14:  -427.06045152919762   -2.21689e-12   1.47122e-09 DIIS
   @RHF iter  15:  -427.06045152919665    9.66338e-13   6.36021e-10 DIIS
   @RHF iter  16:  -427.06045152920012   -3.46745e-12   3.04358e-10 DIIS
   @RHF iter  17:  -427.06045152919808    2.04636e-12   1.05221e-10 DIIS
   @RHF iter  18:  -427.06045152919614    1.93268e-12   3.55630e-11 DIIS
  Energy and wave function converged.


  ==> Post-Iterations <==

    Orbital Energies [Eh]
    ---------------------

    Doubly Occupied:                                                      

       1A    -11.240986     2A    -11.239611     3A    -11.237476  
       4A    -11.234066     5A    -11.233443     6A    -11.233232  
       7A    -11.226063     8A    -11.223179     9A    -11.217646  
      10A    -11.215407    11A    -11.213158    12A     -1.148652  
      13A     -1.062848    14A     -1.056314    15A     -1.008225  
      16A     -0.980119    17A     -0.918489    18A     -0.860413  
      19A     -0.823591    20A     -0.799207    21A     -0.784995  
      22A     -0.689491    23A     -0.640570    24A     -0.637588  
      25A     -0.627581    26A     -0.597937    27A     -0.592299  
      28A     -0.585291    29A     -0.575328    30A     -0.542658  
      31A     -0.536699    32A     -0.531724    33A     -0.514665  
      34A     -0.499290    35A     -0.480064    36A     -0.475754  
      37A     -0.474714    38A     -0.468412    39A     -0.467392  
      40A     -0.465127    41A     -0.330190    42A     -0.320453  

    Virtual:                                                              

      43A      0.131962    44A      0.138593    45A      0.172163  
      46A      0.190486    47A      0.200597    48A      0.205045  
      49A      0.229388    50A      0.229914    51A      0.237034  
      52A      0.245330    53A      0.251079    54A      0.259706  
      55A      0.271610    56A      0.275854    57A      0.280657  
      58A      0.294755    59A      0.306836    60A      0.310060  
      61A      0.319267    62A      0.329093    63A      0.344322  
      64A      0.379811    65A      0.404844    66A      0.419234  
      67A      0.425639    68A      0.448371    69A      0.470938  
      70A      0.486615    71A      0.495366    72A      0.570306  
      73A      0.583446    74A      0.595843    75A      0.605870  
      76A      0.609159    77A      0.618513    78A      0.624313  
      79A      0.648069    80A      0.654667    81A      0.677238  
      82A      0.696491    83A      0.717876    84A      0.725372  
      85A      0.735181    86A      0.740768    87A      0.744207  
      88A      0.752918    89A      0.756344    90A      0.777941  
      91A      0.795346    92A      0.798698    93A      0.821894  
      94A      0.835940    95A      0.851055    96A      0.855600  
      97A      0.859052    98A      0.868007    99A      0.872888  
     100A      0.882201   101A      0.886772   102A      0.890705  
     103A      0.892496   104A      0.899442   105A      0.905259  
     106A      0.908679   107A      0.927764   108A      0.931593  
     109A      0.935398   110A      0.938721   111A      0.945473  
     112A      0.953074   113A      0.957828   114A      0.972212  
     115A      0.982688   116A      0.993954   117A      1.016279  
     118A      1.030460   119A      1.084986   120A      1.104160  
     121A      1.112573   122A      1.123225   123A      1.132202  
     124A      1.142592   125A      1.151252   126A      1.160574  
     127A      1.174935   128A      1.223151   129A      1.225784  
     130A      1.245006   131A      1.247057   132A      1.262097  
     133A      1.292527   134A      1.296999   135A      1.304105  
     136A      1.323067   137A      1.365420   138A      1.378820  
     139A      1.427128   140A      1.448421   141A      1.465924  
     142A      1.485000   143A      1.511066   144A      1.538291  
     145A      1.572256   146A      1.612355   147A      1.621147  
     148A      1.644377   149A      1.670099   150A      1.675866  
     151A      1.691559   152A      1.701635   153A      1.724864  
     154A      1.740080   155A      1.747967   156A      1.759982  
     157A      1.763429   158A      1.836972   159A      1.846902  
     160A      1.852053   161A      1.855830   162A      1.868492  
     163A      1.870691   164A      1.874890   165A      1.889729  
     166A      1.898007   167A      1.905062   168A      1.912425  
     169A      1.919189   170A      1.928253   171A      1.936095  
     172A      1.937528   173A      1.945072   174A      1.953548  
     175A      1.960957   176A      1.963612   177A      1.972377  
     178A      1.978873   179A      1.985964   180A      1.991456  
     181A      2.002038   182A      2.014137   183A      2.029412  
     184A      2.039806   185A      2.048122   186A      2.058685  
     187A      2.073767   188A      2.090790   189A      2.105682  
     190A      2.129042   191A      2.147502   192A      2.154744  
     193A      2.158959   194A      2.160722   195A      2.168020  
     196A      2.189526   197A      2.207366   198A      2.236898  
     199A      2.245177   200A      2.257218   201A      2.268287  
     202A      2.295393   203A      2.307082   204A      2.317289  
     205A      2.323882   206A      2.338256   207A      2.375756  
     208A      2.387359   209A      2.443530   210A      2.466756  
     211A      2.481953   212A      2.483406   213A      2.514041  
     214A      2.541837   215A      2.545806   216A      2.570770  
     217A      2.584030   218A      2.613506   219A      2.653412  
     220A      2.666601   221A      2.737496   222A      2.755627  
     223A      2.765805   224A      2.769414   225A      2.776004  
     226A      2.780532   227A      2.791645   228A      2.794237  
     229A      2.835098   230A      2.853916   231A      2.874645  
     232A      2.901161   233A      2.924869   234A      2.962795  
     235A      2.963513   236A      2.978069   237A      2.996412  
     238A      3.014876   239A      3.061955   240A      3.073868  
     241A      3.176801   242A      3.189630   243A      3.286755  
     244A      3.937887  

    Final Occupation by Irrep:
              A 
    DOCC [    42 ]

  @RHF Final Energy:  -427.06045152919614

   => Energetics <=

    Nuclear Repulsion Energy =            577.1508803961471585
    One-Electron Energy =               -1720.4019604370319030
    Two-Electron Energy =                 716.1906285116886011
    Total Energy =                       -427.0604515291961434

Computation Completed


Properties will be evaluated at   0.000000,   0.000000,   0.000000 [a0]

Properties computed using the SCF density matrix

  Nuclear Dipole Moment: [e a0]
     X:     3.5228      Y:    14.2615      Z:    -3.7659

  Electronic Dipole Moment: [e a0]
     X:    -3.4982      Y:   -14.2177      Z:     3.6674

  Dipole Moment: [e a0]
     X:     0.0246      Y:     0.0438      Z:    -0.0985     Total:     0.1106

  Dipole Moment: [D]
     X:     0.0624      Y:     0.1113      Z:    -0.2505     Total:     0.2811


*** tstop() called on ds3 at Mon Apr 27 21:50:25 2020
Module time:
	user time   =     173.55 seconds =       2.89 minutes
	system time =      65.55 seconds =       1.09 minutes
	total time  =        297 seconds =       4.95 minutes
Total time:
	user time   =     173.55 seconds =       2.89 minutes
	system time =      65.55 seconds =       1.09 minutes
	total time  =        297 seconds =       4.95 minutes
                                     G D M A

                                 by Anthony Stone

                           version 2.2.06, 22 June 2011

               Distributed Multipoles from Gaussian wavefunctions


Starting at 21:50:25 on 27 Apr 2020 


Using SCF density matrix from file ./SSI/SSI-055PHE-141GLN-1-dimer.test.20584.fchk


                         Distributed Multipole Analysis

Standard DMA

Positions and radii in angstrom
Multipole moments in atomic units, ea_0^k for rank k

C          x =  0.050128  y =  0.082577  z = -1.546511 angstrom
           Maximum rank =  0   Radius =  0.650 angstrom
                   Q00  =  -0.043470

C          x =  0.493128  y = -0.623423  z = -2.826511 angstrom
           Maximum rank =  0   Radius =  0.650 angstrom
                   Q00  =  -0.219516

C          x = -0.192872  y = -0.880423  z = -0.408511 angstrom
           Maximum rank =  0   Radius =  0.650 angstrom
                   Q00  =  -0.112772

C          x =  0.889128  y = -1.415423  z =  0.319489 angstrom
           Maximum rank =  0   Radius =  0.650 angstrom
                   Q00  =  -0.105233

C          x = -1.491872  y = -1.292423  z = -0.098511 angstrom
           Maximum rank =  0   Radius =  0.650 angstrom
                   Q00  =  -0.072903

C          x =  0.650128  y = -2.353423  z =  1.323489 angstrom
           Maximum rank =  0   Radius =  0.650 angstrom
                   Q00  =   0.025336

C          x = -1.734872  y = -2.236423  z =  0.923489 angstrom
           Maximum rank =  0   Radius =  0.650 angstrom
                   Q00  =  -0.073850

C          x = -0.647872  y = -2.772423  z =  1.628489 angstrom
           Maximum rank =  0   Radius =  0.650 angstrom
                   Q00  =  -0.099693

H          x =  0.823128  y =  0.763577  z = -1.245511 angstrom
           Maximum rank =  0   Radius =  0.325 angstrom
                   Q00  =   0.071843

H          x = -0.856872  y =  0.659577  z = -1.733511 angstrom
           Maximum rank =  0   Radius =  0.325 angstrom
                   Q00  =   0.063374

H          x =  1.480128  y = -1.061423  z = -2.663511 angstrom
           Maximum rank =  0   Radius =  0.325 angstrom
                   Q00  =   0.081361

H          x =  1.903128  y = -1.113423  z =  0.096489 angstrom
           Maximum rank =  0   Radius =  0.325 angstrom
                   Q00  =   0.060936

H          x = -2.329872  y = -0.901423  z = -0.659511 angstrom
           Maximum rank =  0   Radius =  0.325 angstrom
                   Q00  =   0.057712

H          x =  1.484128  y = -2.765423  z =  1.877489 angstrom
           Maximum rank =  0   Radius =  0.325 angstrom
                   Q00  =   0.064655

H          x = -2.743872  y = -2.557423  z =  1.144489 angstrom
           Maximum rank =  0   Radius =  0.325 angstrom
                   Q00  =   0.069745

H          x = -0.828872  y = -3.516423  z =  2.383489 angstrom
           Maximum rank =  0   Radius =  0.325 angstrom
                   Q00  =   0.063713

H          x =  0.539138  y =  0.084087  z = -3.667529 angstrom
           Maximum rank =  0   Radius =  0.325 angstrom
                   Q00  =   0.084404

H          x = -0.214962  y = -1.442563  z = -3.020479 angstrom
           Maximum rank =  0   Radius =  0.325 angstrom
                   Q00  =   0.082285

C          x =  0.531128  y =  3.599577  z = -0.223511 angstrom
           Maximum rank =  0   Radius =  0.650 angstrom
                   Q00  =  -0.086939

C          x = -0.514872  y =  3.841577  z =  0.871489 angstrom
           Maximum rank =  0   Radius =  0.650 angstrom
                   Q00  =  -0.236399

C          x =  1.653128  y =  2.772577  z =  0.374489 angstrom
           Maximum rank =  0   Radius =  0.650 angstrom
                   Q00  =  -0.245868

H          x =  0.067128  y =  3.085577  z = -1.064511 angstrom
           Maximum rank =  0   Radius =  0.325 angstrom
                   Q00  =   0.052421

H          x =  0.939128  y =  4.545577  z = -0.557511 angstrom
           Maximum rank =  0   Radius =  0.325 angstrom
                   Q00  =   0.047991

H          x = -0.003872  y =  3.957577  z =  1.831489 angstrom
           Maximum rank =  0   Radius =  0.325 angstrom
                   Q00  =   0.073953

H          x =  2.147128  y =  3.359577  z =  1.145489 angstrom
           Maximum rank =  0   Radius =  0.325 angstrom
                   Q00  =   0.077530

H          x =  1.222128  y =  1.891577  z =  0.852489 angstrom
           Maximum rank =  0   Radius =  0.325 angstrom
                   Q00  =   0.075902

H          x = -1.246762  y =  3.021677  z =  0.917373 angstrom
           Maximum rank =  0   Radius =  0.325 angstrom
                   Q00  =   0.085992

H          x = -1.041742  y =  4.787047  z =  0.675274 angstrom
           Maximum rank =  0   Radius =  0.325 angstrom
                   Q00  =   0.081661

H          x =  2.419398  y =  2.415037  z = -0.329067 angstrom
           Maximum rank =  0   Radius =  0.325 angstrom
                   Q00  =   0.075828

Total multipoles referred to origin at
           x =   0.000000,  y =    0.000000,  z =    0.000000 angstrom
                   Q00  =  -0.000000

Finished at 21:50:25 on 27 Apr 2020 

  DMA results are available in the Python driver through the
	  variable('DMA DISTRIBUTED MULTIPOLES')
  and
	  variable('DMA TOTAL MULTIPOLES')
  commands.


    Psi4 stopped on: Monday, 27 April 2020 09:50PM
    Psi4 wall time for execution: 0:04:56.95

*** Psi4 exiting successfully. Buy a developer a beer!
