
    -----------------------------------------------------------------------
          Psi4: An Open-Source Ab Initio Electronic Structure Package
                               Psi4 1.3.2 release

                         Git: Rev {HEAD} ecbda83 


    R. M. Parrish, L. A. Burns, D. G. A. Smith, A. C. Simmonett,
    A. E. DePrince III, E. G. Hohenstein, U. Bozkaya, A. Yu. Sokolov,
    R. Di Remigio, R. M. Richard, J. F. Gonthier, A. M. James,
    H. R. McAlexander, A. Kumar, M. Saitow, X. Wang, B. P. Pritchard,
    P. Verma, H. F. Schaefer III, K. Patkowski, R. A. King, E. F. Valeev,
    F. A. Evangelista, J. M. Turney, T. D. Crawford, and C. D. Sherrill,
    J. Chem. Theory Comput. 13(7) pp 3185--3197 (2017).
    (doi: 10.1021/acs.jctc.7b00174)


                         Additional Contributions by
    P. Kraus, H. Kruse, M. H. Lechner, M. C. Schieber, R. A. Shaw,
    A. Alenaizan, R. Galvelis, Z. L. Glick, S. Lehtola, and J. P. Misiewicz

    -----------------------------------------------------------------------


    Psi4 started on: Tuesday, 28 April 2020 12:32AM

    Process ID: 5394
    Host:       ds3
    PSIDATADIR: /theoryfs2/ds/metcalf/miniconda2/envs/tf2gpu/share/psi4
    Memory:     500.0 MiB
    Threads:    1
    
  ==> Input File <==

--------------------------------------------------------------------------
import numpy as np
set {scf_type pk
basis cc-pvdz
d_convergence 10
gdma_switch   0
gdma_limit    0
gdma_origin   [ 0.0,  0.0,  0.0 ]
}
molecule test {
    units Angstrom
    0 1
    --
    0 1
    C               -0.375319874643075    -0.897859358765891    -5.360869185595667
    C                0.527680125356925     1.133140641234109    -2.329869185595667
    C               -0.238319874643075     0.108140641234109    -2.939869185595667
    C                0.158680125356925     0.037140641234109    -4.318869185595667
    C                1.116680125356925     0.988140641234109    -4.486869185595665
    C               -0.528319874643075     0.764140641234109    -0.240869185595667
    C                0.391680125356925     1.469140641234109    -0.991869185595667
    C               -1.301319874643075    -0.255859358765891    -0.812869185595667
    C               -1.166319874643075    -0.590859358765891    -2.157869185595667
    N                1.343680125356925     1.648140641234109    -3.301869185595666
    H               -0.636319874643075     0.998140641234109     0.809130814404333
    H                0.990680125356925     2.252140641234109    -0.554869185595667
    H               -2.014319874643075    -0.789859358765891    -0.196869185595667
    H               -1.765319874643075    -1.372859358765891    -2.599869185595666
    H                2.032680125356925     2.381140641234109    -3.170869185595667
    H                1.613680125356925     1.202140641234109    -5.422869185595666
    H               -0.133319874643075    -0.494859358765891    -6.345869185595665
    H               -1.463319874643075    -0.919859358765891    -5.272869185595667
    H                0.007574125356925    -1.926349358765891    -5.286019185595666
    C                1.913680125356925     0.881140641234109     3.923130814404334
    C               -0.635319874643075    -1.666859358765891     2.754130814404333
    C               -1.454319874643075    -1.768859358765891     3.867130814404333
    C                0.453680125356925    -0.806859358765891     2.773130814404333
    C                0.732680125356925    -0.043859358765891     3.903130814404333
    C               -1.184319874643075    -1.012859358765891     4.997130814404334
    C               -0.095319874643075    -0.151859358765891     5.015130814404334
    H               -0.872319874643075    -2.214859358765891     1.856130814404333
    H               -2.322319874643075    -2.399859358765891     3.837130814404333
    H                1.053680125356925    -0.709859358765891     1.881130814404333
    H               -1.787319874643075    -1.123859358765891     5.876130814404333
    H                1.793680125356925     1.598140641234109     4.737130814404333
    H                1.897680125356925     1.440140641234109     2.992130814404333
    H                0.112680125356925     0.426140641234109     5.905130814404333
    H                2.875166125356925     0.362310641234109     4.051040814404333

}
e, wfn = energy('scf', return_wfn=True)
gdma(wfn)
dmavals = variable('DMA DISTRIBUTED MULTIPOLES')
charges = np.array(dmavals)
print(charges)
np.save('SSI-029TRP-315PHE-1-dimer.npy', np.array(charges))--------------------------------------------------------------------------

*** tstart() called on ds3
*** at Tue Apr 28 00:32:03 2020

   => Loading Basis Set <=

    Name: CC-PVDZ
    Role: ORBITAL
    Keyword: BASIS
    atoms 1-9, 20-26   entry C          line   138 file /theoryfs2/ds/metcalf/miniconda2/envs/tf2gpu/share/psi4/basis/cc-pvdz.gbs 
    atoms 10           entry N          line   168 file /theoryfs2/ds/metcalf/miniconda2/envs/tf2gpu/share/psi4/basis/cc-pvdz.gbs 
    atoms 11-19, 27-34 entry H          line    22 file /theoryfs2/ds/metcalf/miniconda2/envs/tf2gpu/share/psi4/basis/cc-pvdz.gbs 


         ---------------------------------------------------------
                                   SCF
               by Justin Turney, Rob Parrish, Andy Simmonett
                          and Daniel G. A. Smith
                              RHF Reference
                        1 Threads,    500 MiB Core
         ---------------------------------------------------------

  ==> Geometry <==

    Molecular point group: c1
    Full point group: C1

    Geometry (in Angstrom), charge = 0, multiplicity = 1:

       Center              X                  Y                   Z               Mass       
    ------------   -----------------  -----------------  -----------------  -----------------
         C           -0.375319874643    -0.897859358766    -5.360869185596    12.000000000000
         C            0.527680125357     1.133140641234    -2.329869185596    12.000000000000
         C           -0.238319874643     0.108140641234    -2.939869185596    12.000000000000
         C            0.158680125357     0.037140641234    -4.318869185596    12.000000000000
         C            1.116680125357     0.988140641234    -4.486869185596    12.000000000000
         C           -0.528319874643     0.764140641234    -0.240869185596    12.000000000000
         C            0.391680125357     1.469140641234    -0.991869185596    12.000000000000
         C           -1.301319874643    -0.255859358766    -0.812869185596    12.000000000000
         C           -1.166319874643    -0.590859358766    -2.157869185596    12.000000000000
         N            1.343680125357     1.648140641234    -3.301869185596    14.003074004430
         H           -0.636319874643     0.998140641234     0.809130814404     1.007825032230
         H            0.990680125357     2.252140641234    -0.554869185596     1.007825032230
         H           -2.014319874643    -0.789859358766    -0.196869185596     1.007825032230
         H           -1.765319874643    -1.372859358766    -2.599869185596     1.007825032230
         H            2.032680125357     2.381140641234    -3.170869185596     1.007825032230
         H            1.613680125357     1.202140641234    -5.422869185596     1.007825032230
         H           -0.133319874643    -0.494859358766    -6.345869185596     1.007825032230
         H           -1.463319874643    -0.919859358766    -5.272869185596     1.007825032230
         H            0.007574125357    -1.926349358766    -5.286019185596     1.007825032230
         C            1.913680125357     0.881140641234     3.923130814404    12.000000000000
         C           -0.635319874643    -1.666859358766     2.754130814404    12.000000000000
         C           -1.454319874643    -1.768859358766     3.867130814404    12.000000000000
         C            0.453680125357    -0.806859358766     2.773130814404    12.000000000000
         C            0.732680125357    -0.043859358766     3.903130814404    12.000000000000
         C           -1.184319874643    -1.012859358766     4.997130814404    12.000000000000
         C           -0.095319874643    -0.151859358766     5.015130814404    12.000000000000
         H           -0.872319874643    -2.214859358766     1.856130814404     1.007825032230
         H           -2.322319874643    -2.399859358766     3.837130814404     1.007825032230
         H            1.053680125357    -0.709859358766     1.881130814404     1.007825032230
         H           -1.787319874643    -1.123859358766     5.876130814404     1.007825032230
         H            1.793680125357     1.598140641234     4.737130814404     1.007825032230
         H            1.897680125357     1.440140641234     2.992130814404     1.007825032230
         H            0.112680125357     0.426140641234     5.905130814404     1.007825032230
         H            2.875166125357     0.362310641234     4.051040814404     1.007825032230

  Running in c1 symmetry.

  Rotational constants: A =      0.03806  B =      0.00576  C =      0.00519 [cm^-1]
  Rotational constants: A =   1140.97077  B =    172.76031  C =    155.67248 [MHz]
  Nuclear repulsion = 1039.060704850419143

  Charge       = 0
  Multiplicity = 1
  Electrons    = 120
  Nalpha       = 60
  Nbeta        = 60

  ==> Algorithm <==

  SCF Algorithm Type is PK.
  DIIS enabled.
  MOM disabled.
  Fractional occupation disabled.
  Guess Type is SAD.
  Energy threshold   = 1.00e-06
  Density threshold  = 1.00e-10
  Integral threshold = 0.00e+00

  ==> Primary Basis <==

  Basis Set: CC-PVDZ
    Blend: CC-PVDZ
    Number of shells: 153
    Number of basis function: 323
    Number of Cartesian functions: 340
    Spherical Harmonics?: true
    Max angular momentum: 2

  ==> Pre-Iterations <==

   -------------------------------------------------------
    Irrep   Nso     Nmo     Nalpha   Nbeta   Ndocc  Nsocc
   -------------------------------------------------------
     A        323     323       0       0       0       0
   -------------------------------------------------------
    Total     323     323      60      60      60       0
   -------------------------------------------------------

  ==> Integral Setup <==

  Using integral reordering PK algorithm.
  Sizing the integral batches needed.
  Building batch lookup table.
   Calculation information:
      Number of atoms:                  34
      Number of AO shells:             153
      Number of primitives:            459
      Number of atomic orbitals:       340
      Number of basis functions:       323

      Integral cutoff                 1.00e-12
      Number of threads:                 1

	Batch   1 pq = [       0,    9405] index = [             0,44231715] size =     44231715
	Batch   2 pq = [    9405,   13301] index = [      44231715,88464951] size =     44233236
	Batch   3 pq = [   13301,   16290] index = [      88464951,132690195] size =     44225244
	Batch   4 pq = [   16290,   18810] index = [     132690195,176917455] size =     44227260
	Batch   5 pq = [   18810,   21030] index = [     176917455,221140965] size =     44223510
	Batch   6 pq = [   21030,   23037] index = [     221140965,265363203] size =     44222238
	Batch   7 pq = [   23037,   24883] index = [     265363203,309594286] size =     44231083
	Batch   8 pq = [   24883,   26601] index = [     309594286,353819901] size =     44225615
	Batch   9 pq = [   26601,   28214] index = [     353819901,398029005] size =     44209104
	Batch  10 pq = [   28214,   29740] index = [     398029005,442248670] size =     44219665
	Batch  11 pq = [   29740,   31191] index = [     442248670,486454836] size =     44206166
	Batch  12 pq = [   31191,   32578] index = [     486454836,530679331] size =     44224495
	Batch  13 pq = [   32578,   33908] index = [     530679331,574893186] size =     44213855
	Batch  14 pq = [   33908,   35188] index = [     574893186,619115266] size =     44222080
	Batch  15 pq = [   35188,   36423] index = [     619115266,663335676] size =     44220410
	Batch  16 pq = [   36423,   37617] index = [     663335676,707538153] size =     44202477
	Batch  17 pq = [   37617,   38775] index = [     707538153,751769700] size =     44231547
	Batch  18 pq = [   38775,   39899] index = [     751769700,795985050] size =     44215350
	Batch  19 pq = [   39899,   40992] index = [     795985050,840192528] size =     44207478
	Batch  20 pq = [   40992,   42057] index = [     840192528,884416653] size =     44224125
	Batch  21 pq = [   42057,   43095] index = [     884416653,928611060] size =     44194407
	Batch  22 pq = [   43095,   44109] index = [     928611060,972823995] size =     44212935
	Batch  23 pq = [   44109,   45100] index = [     972823995,1017027550] size =     44203555
	Batch  24 pq = [   45100,   46070] index = [    1017027550,1061245485] size =     44217935
	Batch  25 pq = [   46070,   47020] index = [    1061245485,1105463710] size =     44218225
	Batch  26 pq = [   47020,   47951] index = [    1105463710,1149673176] size =     44209466
	Batch  27 pq = [   47951,   48864] index = [    1149673176,1193869680] size =     44196504
	Batch  28 pq = [   48864,   49761] index = [    1193869680,1238103441] size =     44233761
	Batch  29 pq = [   49761,   50642] index = [    1238103441,1282331403] size =     44227962
	Batch  30 pq = [   50642,   51508] index = [    1282331403,1326562786] size =     44231383
	Batch  31 pq = [   51508,   52326] index = [    1326562786,1369031301] size =     42468515
  Task number: 124
  Buffer size: 11059200
  Buffer per thread: 2
  We computed 61265407 shell quartets total.
  Whereas there are 69401871 unique shell quartets.

  ==> DiskJK: Disk-Based J/K Matrices <==

    J tasked:                  Yes
    K tasked:                  Yes
    wK tasked:                  No
    Memory [MiB]:              375
    Schwarz Cutoff:          1E-12

    OpenMP threads:              1

  Minimum eigenvalue in the overlap matrix is 2.3817619642E-04.
  Using Symmetric Orthogonalization.

  SCF Guess: Superposition of Atomic Densities via on-the-fly atomic UHF.

  ==> Iterations <==

                        Total Energy        Delta E     RMS |[F,P]|

   @RHF iter SAD:  -669.64141387527070   -6.69641e+02   0.00000e+00 
   @RHF iter   1:  -669.94854782183552   -3.07134e-01   2.15939e-03 DIIS
   @RHF iter   2:  -670.24189980518634   -2.93352e-01   9.34574e-04 DIIS
   @RHF iter   3:  -670.29037741324066   -4.84776e-02   2.50853e-04 DIIS
   @RHF iter   4:  -670.29492766465955   -4.55025e-03   1.10141e-04 DIIS
   @RHF iter   5:  -670.29563229070504   -7.04626e-04   1.67040e-05 DIIS
   @RHF iter   6:  -670.29566501311285   -3.27224e-05   7.56814e-06 DIIS
   @RHF iter   7:  -670.29567204445118   -7.03134e-06   3.00927e-06 DIIS
   @RHF iter   8:  -670.29567393114883   -1.88670e-06   1.30420e-06 DIIS
   @RHF iter   9:  -670.29567434952219   -4.18373e-07   5.79366e-07 DIIS
   @RHF iter  10:  -670.29567443477220   -8.52500e-08   2.53255e-07 DIIS
   @RHF iter  11:  -670.29567445496127   -2.01891e-08   1.02524e-07 DIIS
   @RHF iter  12:  -670.29567445767157   -2.71029e-09   3.95001e-08 DIIS
   @RHF iter  13:  -670.29567445795772   -2.86150e-10   1.14477e-08 DIIS
   @RHF iter  14:  -670.29567445796374   -6.02540e-12   4.54256e-09 DIIS
   @RHF iter  15:  -670.29567445797773   -1.39835e-11   1.87446e-09 DIIS
   @RHF iter  16:  -670.29567445797784   -1.13687e-13   8.87144e-10 DIIS
   @RHF iter  17:  -670.29567445797386    3.97904e-12   4.53734e-10 DIIS
   @RHF iter  18:  -670.29567445798261   -8.75389e-12   1.58866e-10 DIIS
   @RHF iter  19:  -670.29567445798602   -3.41061e-12   6.32908e-11 DIIS
  Energy and wave function converged.


  ==> Post-Iterations <==

    Orbital Energies [Eh]
    ---------------------

    Doubly Occupied:                                                      

       1A    -15.600777     2A    -11.263377     3A    -11.262753  
       4A    -11.236076     5A    -11.230549     6A    -11.229851  
       7A    -11.229436     8A    -11.228442     9A    -11.227230  
      10A    -11.226720    11A    -11.226636    12A    -11.226488  
      13A    -11.225572    14A    -11.224368    15A    -11.220390  
      16A    -11.219315    17A    -11.217191    18A     -1.295082  
      19A     -1.152300    20A     -1.128383    21A     -1.073450  
      22A     -1.043811    23A     -1.010270    24A     -0.997134  
      25A     -0.987127    26A     -0.931257    27A     -0.929641  
      28A     -0.839194    29A     -0.822613    30A     -0.803393  
      31A     -0.793600    32A     -0.753006    33A     -0.719787  
      34A     -0.689581    35A     -0.662254    36A     -0.641418  
      37A     -0.630216    38A     -0.626560    39A     -0.602925  
      40A     -0.591918    41A     -0.589938    42A     -0.581047  
      43A     -0.577853    44A     -0.566836    45A     -0.559971  
      46A     -0.552334    47A     -0.537639    48A     -0.532285  
      49A     -0.526576    50A     -0.494214    51A     -0.485979  
      52A     -0.481154    53A     -0.478727    54A     -0.470680  
      55A     -0.461019    56A     -0.372807    57A     -0.329820  
      58A     -0.319688    59A     -0.294560    60A     -0.275323  

    Virtual:                                                              

      61A      0.125464    62A      0.137688    63A      0.145613  
      64A      0.167899    65A      0.173735    66A      0.184059  
      67A      0.190297    68A      0.198238    69A      0.207150  
      70A      0.223264    71A      0.230167    72A      0.231293  
      73A      0.246734    74A      0.251425    75A      0.259835  
      76A      0.266534    77A      0.276054    78A      0.287654  
      79A      0.290930    80A      0.295621    81A      0.301940  
      82A      0.318859    83A      0.368332    84A      0.375624  
      85A      0.378766    86A      0.390000    87A      0.407075  
      88A      0.424473    89A      0.442958    90A      0.457758  
      91A      0.463114    92A      0.473161    93A      0.482869  
      94A      0.485248    95A      0.498918    96A      0.504196  
      97A      0.512292    98A      0.568461    99A      0.595132  
     100A      0.600945   101A      0.612474   102A      0.633387  
     103A      0.635069   104A      0.644131   105A      0.664699  
     106A      0.682888   107A      0.686345   108A      0.691486  
     109A      0.700942   110A      0.706321   111A      0.714676  
     112A      0.720123   113A      0.730527   114A      0.732471  
     115A      0.737239   116A      0.740984   117A      0.744927  
     118A      0.749208   119A      0.749627   120A      0.751915  
     121A      0.761899   122A      0.767174   123A      0.770257  
     124A      0.773716   125A      0.786825   126A      0.789702  
     127A      0.792717   128A      0.801677   129A      0.824097  
     130A      0.830471   131A      0.840564   132A      0.855756  
     133A      0.870618   134A      0.873062   135A      0.875697  
     136A      0.879171   137A      0.882027   138A      0.893989  
     139A      0.896907   140A      0.903314   141A      0.912484  
     142A      0.917190   143A      0.930329   144A      0.935655  
     145A      0.940234   146A      0.943841   147A      0.951666  
     148A      0.955918   149A      0.960384   150A      0.978540  
     151A      0.989023   152A      0.989493   153A      1.010309  
     154A      1.016134   155A      1.031521   156A      1.047991  
     157A      1.061728   158A      1.071523   159A      1.099388  
     160A      1.121617   161A      1.123396   162A      1.134836  
     163A      1.140578   164A      1.144347   165A      1.154581  
     166A      1.162362   167A      1.180963   168A      1.186676  
     169A      1.196712   170A      1.207352   171A      1.222239  
     172A      1.225431   173A      1.233183   174A      1.241370  
     175A      1.247642   176A      1.255946   177A      1.257520  
     178A      1.273630   179A      1.289576   180A      1.291828  
     181A      1.295957   182A      1.308110   183A      1.313771  
     184A      1.320401   185A      1.336407   186A      1.338239  
     187A      1.362649   188A      1.369553   189A      1.383042  
     190A      1.421907   191A      1.423669   192A      1.448368  
     193A      1.509909   194A      1.530487   195A      1.550471  
     196A      1.557319   197A      1.563289   198A      1.579753  
     199A      1.602829   200A      1.611262   201A      1.632496  
     202A      1.644426   203A      1.649682   204A      1.682193  
     205A      1.685214   206A      1.693386   207A      1.699980  
     208A      1.737997   209A      1.741628   210A      1.747764  
     211A      1.765394   212A      1.767149   213A      1.780440  
     214A      1.789950   215A      1.808796   216A      1.816782  
     217A      1.822099   218A      1.826710   219A      1.834330  
     220A      1.863889   221A      1.886207   222A      1.890452  
     223A      1.895219   224A      1.901774   225A      1.905684  
     226A      1.910283   227A      1.911519   228A      1.918485  
     229A      1.925792   230A      1.930923   231A      1.938507  
     232A      1.949225   233A      1.951146   234A      1.960737  
     235A      1.963663   236A      1.977284   237A      1.988105  
     238A      2.000176   239A      2.007766   240A      2.009969  
     241A      2.014271   242A      2.021614   243A      2.044901  
     244A      2.051195   245A      2.063847   246A      2.079529  
     247A      2.085484   248A      2.087908   249A      2.089272  
     250A      2.106921   251A      2.109423   252A      2.117887  
     253A      2.122442   254A      2.146331   255A      2.148065  
     256A      2.157353   257A      2.162062   258A      2.171459  
     259A      2.181491   260A      2.184672   261A      2.198521  
     262A      2.202195   263A      2.230161   264A      2.247378  
     265A      2.263698   266A      2.281585   267A      2.289771  
     268A      2.301324   269A      2.306005   270A      2.314234  
     271A      2.327222   272A      2.332024   273A      2.340175  
     274A      2.346082   275A      2.365056   276A      2.397558  
     277A      2.418809   278A      2.455142   279A      2.463037  
     280A      2.472143   281A      2.490200   282A      2.522001  
     283A      2.540246   284A      2.545222   285A      2.588706  
     286A      2.606439   287A      2.635036   288A      2.638178  
     289A      2.663583   290A      2.683795   291A      2.700030  
     292A      2.754221   293A      2.767271   294A      2.769838  
     295A      2.776370   296A      2.780759   297A      2.787227  
     298A      2.802094   299A      2.812598   300A      2.825642  
     301A      2.834879   302A      2.855935   303A      2.873868  
     304A      2.881153   305A      2.883548   306A      2.914871  
     307A      2.969894   308A      2.998441   309A      3.016973  
     310A      3.034350   311A      3.045776   312A      3.055313  
     313A      3.079775   314A      3.120581   315A      3.167385  
     316A      3.208401   317A      3.223113   318A      3.309779  
     319A      3.317162   320A      3.382535   321A      3.744435  
     322A      3.958372   323A      3.994258  

    Final Occupation by Irrep:
              A 
    DOCC [    60 ]

  @RHF Final Energy:  -670.29567445798602

   => Energetics <=

    Nuclear Repulsion Energy =           1039.0607048504191425
    One-Electron Energy =               -2969.6956788899874482
    Two-Electron Energy =                1260.3392995815822815
    Total Energy =                       -670.2956744579860242

Computation Completed


Properties will be evaluated at   0.000000,   0.000000,   0.000000 [a0]

Properties computed using the SCF density matrix

  Nuclear Dipole Moment: [e a0]
     X:     1.2926      Y:    -1.2159      Z:     2.9110

  Electronic Dipole Moment: [e a0]
     X:    -0.6479      Y:     1.7517      Z:    -3.2805

  Dipole Moment: [e a0]
     X:     0.6446      Y:     0.5358      Z:    -0.3694     Total:     0.9160

  Dipole Moment: [D]
     X:     1.6384      Y:     1.3618      Z:    -0.9390     Total:     2.3283


*** tstop() called on ds3 at Tue Apr 28 02:53:09 2020
Module time:
	user time   =     600.68 seconds =      10.01 minutes
	system time =     266.38 seconds =       4.44 minutes
	total time  =       8466 seconds =     141.10 minutes
Total time:
	user time   =     600.68 seconds =      10.01 minutes
	system time =     266.38 seconds =       4.44 minutes
	total time  =       8466 seconds =     141.10 minutes
                                     G D M A

                                 by Anthony Stone

                           version 2.2.06, 22 June 2011

               Distributed Multipoles from Gaussian wavefunctions


Starting at 2:53:10 on 28 Apr 2020  


Using SCF density matrix from file ./SSI/SSI-029TRP-315PHE-1-dimer.test.5394.fchk


                         Distributed Multipole Analysis

Standard DMA

Positions and radii in angstrom
Multipole moments in atomic units, ea_0^k for rank k

C          x = -0.375320  y = -0.897859  z = -5.360869 angstrom
           Maximum rank =  0   Radius =  0.650 angstrom
                   Q00  =  -0.207487

C          x =  0.527680  y =  1.133141  z = -2.329869 angstrom
           Maximum rank =  0   Radius =  0.650 angstrom
                   Q00  =   0.299377

C          x = -0.238320  y =  0.108141  z = -2.939869 angstrom
           Maximum rank =  0   Radius =  0.650 angstrom
                   Q00  =  -0.054342

C          x =  0.158680  y =  0.037141  z = -4.318869 angstrom
           Maximum rank =  0   Radius =  0.650 angstrom
                   Q00  =  -0.123581

C          x =  1.116680  y =  0.988141  z = -4.486869 angstrom
           Maximum rank =  0   Radius =  0.650 angstrom
                   Q00  =   0.072401

C          x = -0.528320  y =  0.764141  z = -0.240869 angstrom
           Maximum rank =  0   Radius =  0.650 angstrom
                   Q00  =  -0.071449

C          x =  0.391680  y =  1.469141  z = -0.991869 angstrom
           Maximum rank =  0   Radius =  0.650 angstrom
                   Q00  =  -0.123689

C          x = -1.301320  y = -0.255859  z = -0.812869 angstrom
           Maximum rank =  0   Radius =  0.650 angstrom
                   Q00  =  -0.091272

C          x = -1.166320  y = -0.590859  z = -2.157869 angstrom
           Maximum rank =  0   Radius =  0.650 angstrom
                   Q00  =  -0.096374

N          x =  1.343680  y =  1.648141  z = -3.301869 angstrom
           Maximum rank =  0   Radius =  0.650 angstrom
                   Q00  =  -0.497838

H          x = -0.636320  y =  0.998141  z =  0.809131 angstrom
           Maximum rank =  0   Radius =  0.325 angstrom
                   Q00  =   0.074731

H          x =  0.990680  y =  2.252141  z = -0.554869 angstrom
           Maximum rank =  0   Radius =  0.325 angstrom
                   Q00  =   0.070651

H          x = -2.014320  y = -0.789859  z = -0.196869 angstrom
           Maximum rank =  0   Radius =  0.325 angstrom
                   Q00  =   0.059773

H          x = -1.765320  y = -1.372859  z = -2.599869 angstrom
           Maximum rank =  0   Radius =  0.325 angstrom
                   Q00  =   0.070011

H          x =  2.032680  y =  2.381141  z = -3.170869 angstrom
           Maximum rank =  0   Radius =  0.325 angstrom
                   Q00  =   0.216930

H          x =  1.613680  y =  1.202141  z = -5.422869 angstrom
           Maximum rank =  0   Radius =  0.325 angstrom
                   Q00  =   0.099852

H          x = -0.133320  y = -0.494859  z = -6.345869 angstrom
           Maximum rank =  0   Radius =  0.325 angstrom
                   Q00  =   0.102988

H          x = -1.463320  y = -0.919859  z = -5.272869 angstrom
           Maximum rank =  0   Radius =  0.325 angstrom
                   Q00  =   0.099178

H          x =  0.007574  y = -1.926349  z = -5.286019 angstrom
           Maximum rank =  0   Radius =  0.325 angstrom
                   Q00  =   0.098827

C          x =  1.913680  y =  0.881141  z =  3.923131 angstrom
           Maximum rank =  0   Radius =  0.650 angstrom
                   Q00  =  -0.197256

C          x = -0.635320  y = -1.666859  z =  2.754131 angstrom
           Maximum rank =  0   Radius =  0.650 angstrom
                   Q00  =  -0.069653

C          x = -1.454320  y = -1.768859  z =  3.867131 angstrom
           Maximum rank =  0   Radius =  0.650 angstrom
                   Q00  =  -0.097436

C          x =  0.453680  y = -0.806859  z =  2.773131 angstrom
           Maximum rank =  0   Radius =  0.650 angstrom
                   Q00  =   0.002810

C          x =  0.732680  y = -0.043859  z =  3.903131 angstrom
           Maximum rank =  0   Radius =  0.650 angstrom
                   Q00  =  -0.101850

C          x = -1.184320  y = -1.012859  z =  4.997131 angstrom
           Maximum rank =  0   Radius =  0.650 angstrom
                   Q00  =  -0.058404

C          x = -0.095320  y = -0.151859  z =  5.015131 angstrom
           Maximum rank =  0   Radius =  0.650 angstrom
                   Q00  =  -0.078375

H          x = -0.872320  y = -2.214859  z =  1.856131 angstrom
           Maximum rank =  0   Radius =  0.325 angstrom
                   Q00  =   0.066316

H          x = -2.322320  y = -2.399859  z =  3.837131 angstrom
           Maximum rank =  0   Radius =  0.325 angstrom
                   Q00  =   0.058338

H          x =  1.053680  y = -0.709859  z =  1.881131 angstrom
           Maximum rank =  0   Radius =  0.325 angstrom
                   Q00  =   0.062226

H          x = -1.787320  y = -1.123859  z =  5.876131 angstrom
           Maximum rank =  0   Radius =  0.325 angstrom
                   Q00  =   0.062755

H          x =  1.793680  y =  1.598141  z =  4.737131 angstrom
           Maximum rank =  0   Radius =  0.325 angstrom
                   Q00  =   0.094710

H          x =  1.897680  y =  1.440141  z =  2.992131 angstrom
           Maximum rank =  0   Radius =  0.325 angstrom
                   Q00  =   0.096301

H          x =  0.112680  y =  0.426141  z =  5.905131 angstrom
           Maximum rank =  0   Radius =  0.325 angstrom
                   Q00  =   0.055744

H          x =  2.875166  y =  0.362311  z =  4.051041 angstrom
           Maximum rank =  0   Radius =  0.325 angstrom
                   Q00  =   0.105087

Total multipoles referred to origin at
           x =   0.000000,  y =    0.000000,  z =    0.000000 angstrom
                   Q00  =  -0.000000

Finished at 2:53:10 on 28 Apr 2020  

  DMA results are available in the Python driver through the
	  variable('DMA DISTRIBUTED MULTIPOLES')
  and
	  variable('DMA TOTAL MULTIPOLES')
  commands.


    Psi4 stopped on: Tuesday, 28 April 2020 02:53AM
    Psi4 wall time for execution: 2:21:06.31

*** Psi4 exiting successfully. Buy a developer a beer!
