
    -----------------------------------------------------------------------
          Psi4: An Open-Source Ab Initio Electronic Structure Package
                               Psi4 1.3.2 release

                         Git: Rev {HEAD} ecbda83 


    R. M. Parrish, L. A. Burns, D. G. A. Smith, A. C. Simmonett,
    A. E. DePrince III, E. G. Hohenstein, U. Bozkaya, A. Yu. Sokolov,
    R. Di Remigio, R. M. Richard, J. F. Gonthier, A. M. James,
    H. R. McAlexander, A. Kumar, M. Saitow, X. Wang, B. P. Pritchard,
    P. Verma, H. F. Schaefer III, K. Patkowski, R. A. King, E. F. Valeev,
    F. A. Evangelista, J. M. Turney, T. D. Crawford, and C. D. Sherrill,
    J. Chem. Theory Comput. 13(7) pp 3185--3197 (2017).
    (doi: 10.1021/acs.jctc.7b00174)


                         Additional Contributions by
    P. Kraus, H. Kruse, M. H. Lechner, M. C. Schieber, R. A. Shaw,
    A. Alenaizan, R. Galvelis, Z. L. Glick, S. Lehtola, and J. P. Misiewicz

    -----------------------------------------------------------------------


    Psi4 started on: Tuesday, 28 April 2020 10:06AM

    Process ID: 31304
    Host:       ds3
    PSIDATADIR: /theoryfs2/ds/metcalf/miniconda2/envs/tf2gpu/share/psi4
    Memory:     500.0 MiB
    Threads:    1
    
  ==> Input File <==

--------------------------------------------------------------------------
import numpy as np
set {scf_type pk
basis cc-pvdz
d_convergence 10
gdma_switch   0
gdma_limit    0
gdma_origin   [ 0.0,  0.0,  0.0 ]
}
molecule test {
    units Angstrom
    0 1
    --
    0 1
    C                0.416702647175276     1.321251821199366    -0.274454052872958
    C                1.073702647175276     2.013251821199366     0.918545947127042
    O                1.270702647175276     0.329251821199366    -0.835454052872958
    H               -0.505297352824724     0.848251821199366     0.056545947127042
    H                0.165702647175276     2.062251821199367    -1.033454052872959
    H                0.287702647175276     2.620251821199366     1.368545947127042
    H                2.017702647175276     0.771251821199366    -1.263454052872958
    H                1.906298847175276     2.658801821199366     0.602235947127042
    H                1.336650647175276     1.270771821199366     1.686385947127041
    C               -1.984297352824724    -1.450748178800634    -0.213454052872958
    C               -0.908297352824724    -2.257748178800634     0.489545947127042
    H               -2.839297352824724    -2.072748178800634    -0.481454052872958
    H               -2.338297352824724    -0.660748178800634     0.452545947127042
    H               -1.585297352824724    -0.979748178800634    -1.112454052872958
    H               -0.155297352824724    -1.558748178800633     0.854545947127042
    H               -0.411918352824724    -2.968198178800634    -0.187854052872958
    H               -1.349996352824724    -2.763788178800633     1.360655947127042

}
e, wfn = energy('scf', return_wfn=True)
gdma(wfn)
dmavals = variable('DMA DISTRIBUTED MULTIPOLES')
charges = np.array(dmavals)
print(charges)
np.save('SSI-025SER-100ILE-1-dimer.npy', np.array(charges))--------------------------------------------------------------------------

*** tstart() called on ds3
*** at Tue Apr 28 10:06:51 2020

   => Loading Basis Set <=

    Name: CC-PVDZ
    Role: ORBITAL
    Keyword: BASIS
    atoms 1-2, 10-11 entry C          line   138 file /theoryfs2/ds/metcalf/miniconda2/envs/tf2gpu/share/psi4/basis/cc-pvdz.gbs 
    atoms 3          entry O          line   198 file /theoryfs2/ds/metcalf/miniconda2/envs/tf2gpu/share/psi4/basis/cc-pvdz.gbs 
    atoms 4-9, 12-17 entry H          line    22 file /theoryfs2/ds/metcalf/miniconda2/envs/tf2gpu/share/psi4/basis/cc-pvdz.gbs 


         ---------------------------------------------------------
                                   SCF
               by Justin Turney, Rob Parrish, Andy Simmonett
                          and Daniel G. A. Smith
                              RHF Reference
                        1 Threads,    500 MiB Core
         ---------------------------------------------------------

  ==> Geometry <==

    Molecular point group: c1
    Full point group: C1

    Geometry (in Angstrom), charge = 0, multiplicity = 1:

       Center              X                  Y                   Z               Mass       
    ------------   -----------------  -----------------  -----------------  -----------------
         C            0.416702647175     1.321251821199    -0.274454052873    12.000000000000
         C            1.073702647175     2.013251821199     0.918545947127    12.000000000000
         O            1.270702647175     0.329251821199    -0.835454052873    15.994914619570
         H           -0.505297352825     0.848251821199     0.056545947127     1.007825032230
         H            0.165702647175     2.062251821199    -1.033454052873     1.007825032230
         H            0.287702647175     2.620251821199     1.368545947127     1.007825032230
         H            2.017702647175     0.771251821199    -1.263454052873     1.007825032230
         H            1.906298847175     2.658801821199     0.602235947127     1.007825032230
         H            1.336650647175     1.270771821199     1.686385947127     1.007825032230
         C           -1.984297352825    -1.450748178801    -0.213454052873    12.000000000000
         C           -0.908297352825    -2.257748178801     0.489545947127    12.000000000000
         H           -2.839297352825    -2.072748178801    -0.481454052873     1.007825032230
         H           -2.338297352825    -0.660748178801     0.452545947127     1.007825032230
         H           -1.585297352825    -0.979748178801    -1.112454052873     1.007825032230
         H           -0.155297352825    -1.558748178801     0.854545947127     1.007825032230
         H           -0.411918352825    -2.968198178801    -0.187854052873     1.007825032230
         H           -1.349996352825    -2.763788178801     1.360655947127     1.007825032230

  Running in c1 symmetry.

  Rotational constants: A =      0.22327  B =      0.05217  C =      0.04980 [cm^-1]
  Rotational constants: A =   6693.43504  B =   1563.95759  C =   1493.03887 [MHz]
  Nuclear repulsion =  184.761000615914810

  Charge       = 0
  Multiplicity = 1
  Electrons    = 44
  Nalpha       = 22
  Nbeta        = 22

  ==> Algorithm <==

  SCF Algorithm Type is PK.
  DIIS enabled.
  MOM disabled.
  Fractional occupation disabled.
  Guess Type is SAD.
  Energy threshold   = 1.00e-06
  Density threshold  = 1.00e-10
  Integral threshold = 0.00e+00

  ==> Primary Basis <==

  Basis Set: CC-PVDZ
    Blend: CC-PVDZ
    Number of shells: 66
    Number of basis function: 130
    Number of Cartesian functions: 135
    Spherical Harmonics?: true
    Max angular momentum: 2

  ==> Pre-Iterations <==

   -------------------------------------------------------
    Irrep   Nso     Nmo     Nalpha   Nbeta   Ndocc  Nsocc
   -------------------------------------------------------
     A        130     130       0       0       0       0
   -------------------------------------------------------
    Total     130     130      22      22      22       0
   -------------------------------------------------------

  ==> Integral Setup <==

  Using integral reordering PK algorithm.
  Sizing the integral batches needed.
  Building batch lookup table.
   Calculation information:
      Number of atoms:                  17
      Number of AO shells:              66
      Number of primitives:            170
      Number of atomic orbitals:       135
      Number of basis functions:       130

      Integral cutoff                 1.00e-12
      Number of threads:                 1

	Batch   1 pq = [       0,    8515] index = [             0,36256870] size =     36256870
  Task number: 4
  Buffer size: 11059200
  Buffer per thread: 2
  We computed 2175757 shell quartets total.
  Whereas there are 2445366 unique shell quartets.

  ==> DiskJK: Disk-Based J/K Matrices <==

    J tasked:                  Yes
    K tasked:                  Yes
    wK tasked:                  No
    Memory [MiB]:              375
    Schwarz Cutoff:          1E-12

    OpenMP threads:              1

  Minimum eigenvalue in the overlap matrix is 5.9964983755E-03.
  Using Symmetric Orthogonalization.

  SCF Guess: Superposition of Atomic Densities via on-the-fly atomic UHF.

  ==> Iterations <==

                        Total Energy        Delta E     RMS |[F,P]|

   @RHF iter SAD:  -232.09848272373026   -2.32098e+02   0.00000e+00 
   @RHF iter   1:  -233.13935611597483   -1.04087e+00   4.22722e-03 DIIS
   @RHF iter   2:  -233.29006699903169   -1.50711e-01   1.97205e-03 DIIS
   @RHF iter   3:  -233.31930173456789   -2.92347e-02   3.87384e-04 DIIS
   @RHF iter   4:  -233.32142314162525   -2.12141e-03   1.27429e-04 DIIS
   @RHF iter   5:  -233.32157382480673   -1.50683e-04   2.50842e-05 DIIS
   @RHF iter   6:  -233.32158239077006   -8.56596e-06   4.54397e-06 DIIS
   @RHF iter   7:  -233.32158279551524   -4.04745e-07   1.12231e-06 DIIS
   @RHF iter   8:  -233.32158281944953   -2.39343e-08   3.91190e-07 DIIS
   @RHF iter   9:  -233.32158282253337   -3.08384e-09   1.00195e-07 DIIS
   @RHF iter  10:  -233.32158282278391   -2.50537e-10   2.08844e-08 DIIS
   @RHF iter  11:  -233.32158282279437   -1.04592e-11   5.57879e-09 DIIS
   @RHF iter  12:  -233.32158282279471   -3.41061e-13   1.64795e-09 DIIS
   @RHF iter  13:  -233.32158282279522   -5.11591e-13   3.97721e-10 DIIS
   @RHF iter  14:  -233.32158282279511    1.13687e-13   1.09938e-10 DIIS
   @RHF iter  15:  -233.32158282279534   -2.27374e-13   3.83191e-11 DIIS
  Energy and wave function converged.


  ==> Post-Iterations <==

    Orbital Energies [Eh]
    ---------------------

    Doubly Occupied:                                                      

       1A    -20.549188     2A    -11.275538     3A    -11.224102  
       4A    -11.209991     5A    -11.208986     6A     -1.349328  
       7A     -1.013642     8A     -1.009976     9A     -0.841141  
      10A     -0.827810    11A     -0.684283    12A     -0.626154  
      13A     -0.595348    14A     -0.589929    15A     -0.588134  
      16A     -0.544255    17A     -0.519231    18A     -0.495679  
      19A     -0.480737    20A     -0.478102    21A     -0.470205  
      22A     -0.433460  

    Virtual:                                                              

      23A      0.169158    24A      0.200999    25A      0.212118  
      26A      0.226256    27A      0.253576    28A      0.256435  
      29A      0.262128    30A      0.265050    31A      0.276171  
      32A      0.294035    33A      0.320811    34A      0.345533  
      35A      0.394738    36A      0.408114    37A      0.411436  
      38A      0.598925    39A      0.601957    40A      0.613009  
      41A      0.618522    42A      0.629877    43A      0.654036  
      44A      0.696431    45A      0.735181    46A      0.752847  
      47A      0.795116    48A      0.835365    49A      0.853442  
      50A      0.860898    51A      0.878084    52A      0.886574  
      53A      0.895434    54A      0.901467    55A      0.906803  
      56A      0.911923    57A      0.928945    58A      0.931180  
      59A      0.976003    60A      0.983946    61A      1.019546  
      62A      1.129140    63A      1.136681    64A      1.137541  
      65A      1.162535    66A      1.222445    67A      1.254491  
      68A      1.287021    69A      1.337448    70A      1.379045  
      71A      1.459610    72A      1.475345    73A      1.504909  
      74A      1.533873    75A      1.596653    76A      1.622269  
      77A      1.644285    78A      1.668734    79A      1.695935  
      80A      1.704659    81A      1.742599    82A      1.849552  
      83A      1.854616    84A      1.870651    85A      1.881288  
      86A      1.887982    87A      1.918947    88A      1.923777  
      89A      1.943792    90A      1.952180    91A      1.960296  
      92A      1.970103    93A      1.975755    94A      1.982723  
      95A      2.005026    96A      2.015214    97A      2.059514  
      98A      2.098279    99A      2.122324   100A      2.133093  
     101A      2.178103   102A      2.268414   103A      2.306637  
     104A      2.315872   105A      2.348130   106A      2.359910  
     107A      2.427502   108A      2.458977   109A      2.468672  
     110A      2.498100   111A      2.530504   112A      2.562237  
     113A      2.578476   114A      2.590531   115A      2.755236  
     116A      2.769061   117A      2.782330   118A      2.798553  
     119A      2.818451   120A      2.862996   121A      2.872572  
     122A      2.902255   123A      2.929295   124A      2.955036  
     125A      2.990737   126A      3.317714   127A      3.390982  
     128A      3.468206   129A      3.640504   130A      4.104994  

    Final Occupation by Irrep:
              A 
    DOCC [    22 ]

  @RHF Final Energy:  -233.32158282279534

   => Energetics <=

    Nuclear Repulsion Energy =            184.7610006159148099
    One-Electron Energy =                -682.1347255776681777
    Two-Electron Energy =                 264.0521421389580610
    Total Energy =                       -233.3215828227953352

Computation Completed


Properties will be evaluated at   0.000000,   0.000000,   0.000000 [a0]

Properties computed using the SCF density matrix

  Nuclear Dipole Moment: [e a0]
     X:    -3.2482      Y:    -0.7225      Z:     2.1548

  Electronic Dipole Moment: [e a0]
     X:     3.3867      Y:     1.4244      Z:    -2.1984

  Dipole Moment: [e a0]
     X:     0.1385      Y:     0.7019      Z:    -0.0437     Total:     0.7167

  Dipole Moment: [D]
     X:     0.3521      Y:     1.7840      Z:    -0.1110     Total:     1.8218


*** tstop() called on ds3 at Tue Apr 28 10:07:26 2020
Module time:
	user time   =      12.39 seconds =       0.21 minutes
	system time =       4.51 seconds =       0.08 minutes
	total time  =         35 seconds =       0.58 minutes
Total time:
	user time   =      12.39 seconds =       0.21 minutes
	system time =       4.51 seconds =       0.08 minutes
	total time  =         35 seconds =       0.58 minutes
                                     G D M A

                                 by Anthony Stone

                           version 2.2.06, 22 June 2011

               Distributed Multipoles from Gaussian wavefunctions


Starting at 10:7:27 on 28 Apr 2020  


Using SCF density matrix from file ./SSI/SSI-025SER-100ILE-1-dimer.test.31304.fchk


                         Distributed Multipole Analysis

Standard DMA

Positions and radii in angstrom
Multipole moments in atomic units, ea_0^k for rank k

C          x =  0.416703  y =  1.321252  z = -0.274454 angstrom
           Maximum rank =  0   Radius =  0.650 angstrom
                   Q00  =   0.108809

C          x =  1.073703  y =  2.013252  z =  0.918546 angstrom
           Maximum rank =  0   Radius =  0.650 angstrom
                   Q00  =  -0.237779

O          x =  1.270703  y =  0.329252  z = -0.835454 angstrom
           Maximum rank =  0   Radius =  0.650 angstrom
                   Q00  =  -0.599555

H          x = -0.505297  y =  0.848252  z =  0.056546 angstrom
           Maximum rank =  0   Radius =  0.325 angstrom
                   Q00  =   0.080260

H          x =  0.165703  y =  2.062252  z = -1.033454 angstrom
           Maximum rank =  0   Radius =  0.325 angstrom
                   Q00  =   0.038133

H          x =  0.287703  y =  2.620252  z =  1.368546 angstrom
           Maximum rank =  0   Radius =  0.325 angstrom
                   Q00  =   0.077892

H          x =  2.017703  y =  0.771252  z = -1.263454 angstrom
           Maximum rank =  0   Radius =  0.325 angstrom
                   Q00  =   0.384220

H          x =  1.906299  y =  2.658802  z =  0.602236 angstrom
           Maximum rank =  0   Radius =  0.325 angstrom
                   Q00  =   0.068942

H          x =  1.336651  y =  1.270772  z =  1.686386 angstrom
           Maximum rank =  0   Radius =  0.325 angstrom
                   Q00  =   0.081801

C          x = -1.984297  y = -1.450748  z = -0.213454 angstrom
           Maximum rank =  0   Radius =  0.650 angstrom
                   Q00  =  -0.235776

C          x = -0.908297  y = -2.257748  z =  0.489546 angstrom
           Maximum rank =  0   Radius =  0.650 angstrom
                   Q00  =  -0.226934

H          x = -2.839297  y = -2.072748  z = -0.481454 angstrom
           Maximum rank =  0   Radius =  0.325 angstrom
                   Q00  =   0.075770

H          x = -2.338297  y = -0.660748  z =  0.452546 angstrom
           Maximum rank =  0   Radius =  0.325 angstrom
                   Q00  =   0.066767

H          x = -1.585297  y = -0.979748  z = -1.112454 angstrom
           Maximum rank =  0   Radius =  0.325 angstrom
                   Q00  =   0.082244

H          x = -0.155297  y = -1.558748  z =  0.854546 angstrom
           Maximum rank =  0   Radius =  0.325 angstrom
                   Q00  =   0.081732

H          x = -0.411918  y = -2.968198  z = -0.187854 angstrom
           Maximum rank =  0   Radius =  0.325 angstrom
                   Q00  =   0.085337

H          x = -1.349996  y = -2.763788  z =  1.360656 angstrom
           Maximum rank =  0   Radius =  0.325 angstrom
                   Q00  =   0.068137

Total multipoles referred to origin at
           x =   0.000000,  y =    0.000000,  z =    0.000000 angstrom
                   Q00  =  -0.000000

Finished at 10:7:27 on 28 Apr 2020  

  DMA results are available in the Python driver through the
	  variable('DMA DISTRIBUTED MULTIPOLES')
  and
	  variable('DMA TOTAL MULTIPOLES')
  commands.


    Psi4 stopped on: Tuesday, 28 April 2020 10:07AM
    Psi4 wall time for execution: 0:00:35.11

*** Psi4 exiting successfully. Buy a developer a beer!
