
    -----------------------------------------------------------------------
          Psi4: An Open-Source Ab Initio Electronic Structure Package
                               Psi4 1.3.2 release

                         Git: Rev {HEAD} ecbda83 


    R. M. Parrish, L. A. Burns, D. G. A. Smith, A. C. Simmonett,
    A. E. DePrince III, E. G. Hohenstein, U. Bozkaya, A. Yu. Sokolov,
    R. Di Remigio, R. M. Richard, J. F. Gonthier, A. M. James,
    H. R. McAlexander, A. Kumar, M. Saitow, X. Wang, B. P. Pritchard,
    P. Verma, H. F. Schaefer III, K. Patkowski, R. A. King, E. F. Valeev,
    F. A. Evangelista, J. M. Turney, T. D. Crawford, and C. D. Sherrill,
    J. Chem. Theory Comput. 13(7) pp 3185--3197 (2017).
    (doi: 10.1021/acs.jctc.7b00174)


                         Additional Contributions by
    P. Kraus, H. Kruse, M. H. Lechner, M. C. Schieber, R. A. Shaw,
    A. Alenaizan, R. Galvelis, Z. L. Glick, S. Lehtola, and J. P. Misiewicz

    -----------------------------------------------------------------------


    Psi4 started on: Tuesday, 28 April 2020 03:14PM

    Process ID: 5837
    Host:       ds3
    PSIDATADIR: /theoryfs2/ds/metcalf/miniconda2/envs/tf2gpu/share/psi4
    Memory:     500.0 MiB
    Threads:    1
    
  ==> Input File <==

--------------------------------------------------------------------------
import numpy as np
set {scf_type pk
basis cc-pvdz
d_convergence 10
gdma_switch   0
gdma_limit    0
gdma_origin   [ 0.0,  0.0,  0.0 ]
}
molecule test {
    units Angstrom
    0 1
    --
    0 1
    C                2.334258710212786    -0.071803273899482    -0.281259383872639
    C                1.591258710212785    -0.167803273899482     2.100740616127361
    N                0.288258710212785    -0.136803273899482     1.807740616127361
    N                2.528258710212786    -0.120803273899482     1.174740616127361
    N                2.004258710212785    -0.262803273899482     3.340740616127361
    H               -0.021741289787215    -0.119803273899482     0.844740616127361
    H               -0.392741289787215    -0.167803273899482     2.549740616127361
    H                3.487258710212786    -0.139803273899482     1.518740616127361
    H                3.011258710212786    -0.318803273899482     3.471740616127361
    H                1.343258710212786    -0.368803273899482     4.101740616127361
    H                1.294258710212785     0.096196726100518    -0.558259383872640
    H                2.635258710212785    -1.035803273899482    -0.696259383872640
    H                2.981549710212785     0.706806726100518    -0.711109383872640
    C               -3.079741289787214     1.355196726100518    -2.072259383872639
    C               -2.115741289787215     0.144196726100518    -2.043259383872639
    O               -1.459741289787215    -0.113803273899482    -0.999259383872639
    O               -2.078741289787215    -0.600803273899482    -3.076259383872639
    H               -4.090741289787214     0.986196726100518    -2.264259383872639
    H               -2.821741289787215     1.966196726100518    -2.934259383872639
    H               -3.127886289787215     1.967436726100518    -1.159649383872639

}
e, wfn = energy('scf', return_wfn=True)
gdma(wfn)
dmavals = variable('DMA DISTRIBUTED MULTIPOLES')
charges = np.array(dmavals)
print(charges)
np.save('SSI-131ARG-134GLU-2-dimer.npy', np.array(charges))--------------------------------------------------------------------------

*** tstart() called on ds3
*** at Tue Apr 28 15:14:09 2020

   => Loading Basis Set <=

    Name: CC-PVDZ
    Role: ORBITAL
    Keyword: BASIS
    atoms 1-2, 14-15  entry C          line   138 file /theoryfs2/ds/metcalf/miniconda2/envs/tf2gpu/share/psi4/basis/cc-pvdz.gbs 
    atoms 3-5         entry N          line   168 file /theoryfs2/ds/metcalf/miniconda2/envs/tf2gpu/share/psi4/basis/cc-pvdz.gbs 
    atoms 6-13, 18-20 entry H          line    22 file /theoryfs2/ds/metcalf/miniconda2/envs/tf2gpu/share/psi4/basis/cc-pvdz.gbs 
    atoms 16-17       entry O          line   198 file /theoryfs2/ds/metcalf/miniconda2/envs/tf2gpu/share/psi4/basis/cc-pvdz.gbs 


         ---------------------------------------------------------
                                   SCF
               by Justin Turney, Rob Parrish, Andy Simmonett
                          and Daniel G. A. Smith
                              RHF Reference
                        1 Threads,    500 MiB Core
         ---------------------------------------------------------

  ==> Geometry <==

    Molecular point group: c1
    Full point group: C1

    Geometry (in Angstrom), charge = 0, multiplicity = 1:

       Center              X                  Y                   Z               Mass       
    ------------   -----------------  -----------------  -----------------  -----------------
         C            2.334258710213    -0.071803273899    -0.281259383873    12.000000000000
         C            1.591258710213    -0.167803273899     2.100740616127    12.000000000000
         N            0.288258710213    -0.136803273899     1.807740616127    14.003074004430
         N            2.528258710213    -0.120803273899     1.174740616127    14.003074004430
         N            2.004258710213    -0.262803273899     3.340740616127    14.003074004430
         H           -0.021741289787    -0.119803273899     0.844740616127     1.007825032230
         H           -0.392741289787    -0.167803273899     2.549740616127     1.007825032230
         H            3.487258710213    -0.139803273899     1.518740616127     1.007825032230
         H            3.011258710213    -0.318803273899     3.471740616127     1.007825032230
         H            1.343258710213    -0.368803273899     4.101740616127     1.007825032230
         H            1.294258710213     0.096196726101    -0.558259383873     1.007825032230
         H            2.635258710213    -1.035803273899    -0.696259383873     1.007825032230
         H            2.981549710213     0.706806726101    -0.711109383873     1.007825032230
         C           -3.079741289787     1.355196726101    -2.072259383873    12.000000000000
         C           -2.115741289787     0.144196726101    -2.043259383873    12.000000000000
         O           -1.459741289787    -0.113803273899    -0.999259383873    15.994914619570
         O           -2.078741289787    -0.600803273899    -3.076259383873    15.994914619570
         H           -4.090741289787     0.986196726101    -2.264259383873     1.007825032230
         H           -2.821741289787     1.966196726101    -2.934259383873     1.007825032230
         H           -3.127886289787     1.967436726101    -1.159649383873     1.007825032230

  Running in c1 symmetry.

  Rotational constants: A =      0.10315  B =      0.01536  C =      0.01407 [cm^-1]
  Rotational constants: A =   3092.48117  B =    460.44990  C =    421.90757 [MHz]
  Nuclear repulsion =  430.635063062646964

  Charge       = 0
  Multiplicity = 1
  Electrons    = 72
  Nalpha       = 36
  Nbeta        = 36

  ==> Algorithm <==

  SCF Algorithm Type is PK.
  DIIS enabled.
  MOM disabled.
  Fractional occupation disabled.
  Guess Type is SAD.
  Energy threshold   = 1.00e-06
  Density threshold  = 1.00e-10
  Integral threshold = 0.00e+00

  ==> Primary Basis <==

  Basis Set: CC-PVDZ
    Blend: CC-PVDZ
    Number of shells: 87
    Number of basis function: 181
    Number of Cartesian functions: 190
    Spherical Harmonics?: true
    Max angular momentum: 2

  ==> Pre-Iterations <==

   -------------------------------------------------------
    Irrep   Nso     Nmo     Nalpha   Nbeta   Ndocc  Nsocc
   -------------------------------------------------------
     A        181     181       0       0       0       0
   -------------------------------------------------------
    Total     181     181      36      36      36       0
   -------------------------------------------------------

  ==> Integral Setup <==

  Using integral reordering PK algorithm.
  Sizing the integral batches needed.
  Building batch lookup table.
   Calculation information:
      Number of atoms:                  20
      Number of AO shells:              87
      Number of primitives:            253
      Number of atomic orbitals:       190
      Number of basis functions:       181

      Integral cutoff                 1.00e-12
      Number of threads:                 1

	Batch   1 pq = [       0,    9405] index = [             0,44231715] size =     44231715
	Batch   2 pq = [    9405,   13301] index = [      44231715,88464951] size =     44233236
	Batch   3 pq = [   13301,   16471] index = [      88464951,135655156] size =     47190205
  Task number: 13
  Buffer size: 11059200
  Buffer per thread: 2
  We computed 5040899 shell quartets total.
  Whereas there are 7328706 unique shell quartets.

  ==> DiskJK: Disk-Based J/K Matrices <==

    J tasked:                  Yes
    K tasked:                  Yes
    wK tasked:                  No
    Memory [MiB]:              375
    Schwarz Cutoff:          1E-12

    OpenMP threads:              1

  Minimum eigenvalue in the overlap matrix is 3.8086249461E-03.
  Using Symmetric Orthogonalization.

  SCF Guess: Superposition of Atomic Densities via on-the-fly atomic UHF.

  ==> Iterations <==

                        Total Energy        Delta E     RMS |[F,P]|

   @RHF iter SAD:  -469.49301099991089   -4.69493e+02   0.00000e+00 
   @RHF iter   1:  -470.63871564533338   -1.14570e+00   4.34585e-03 DIIS
   @RHF iter   2:  -470.87135650278088   -2.32641e-01   2.36876e-03 DIIS
   @RHF iter   3:  -470.93780965621221   -6.64532e-02   4.15861e-04 DIIS
   @RHF iter   4:  -470.94138016556997   -3.57051e-03   1.46862e-04 DIIS
   @RHF iter   5:  -470.94182727899187   -4.47113e-04   2.90321e-05 DIIS
   @RHF iter   6:  -470.94185010640450   -2.28274e-05   1.44460e-05 DIIS
   @RHF iter   7:  -470.94185395804004   -3.85164e-06   3.41080e-06 DIIS
   @RHF iter   8:  -470.94185440497392   -4.46934e-07   1.48578e-06 DIIS
   @RHF iter   9:  -470.94185447383859   -6.88647e-08   5.30234e-07 DIIS
   @RHF iter  10:  -470.94185448852699   -1.46884e-08   1.98548e-07 DIIS
   @RHF iter  11:  -470.94185449067447   -2.14749e-09   5.89217e-08 DIIS
   @RHF iter  12:  -470.94185449081806   -1.43586e-10   1.99313e-08 DIIS
   @RHF iter  13:  -470.94185449083170   -1.36424e-11   4.62512e-09 DIIS
   @RHF iter  14:  -470.94185449083494   -3.24007e-12   1.47644e-09 DIIS
   @RHF iter  15:  -470.94185449083238    2.55795e-12   5.23055e-10 DIIS
   @RHF iter  16:  -470.94185449083318   -7.95808e-13   2.39367e-10 DIIS
   @RHF iter  17:  -470.94185449083290    2.84217e-13   1.11078e-10 DIIS
   @RHF iter  18:  -470.94185449083500   -2.10321e-12   4.07491e-11 DIIS
  Energy and wave function converged.


  ==> Post-Iterations <==

    Orbital Energies [Eh]
    ---------------------

    Doubly Occupied:                                                      

       1A    -20.384747     2A    -20.360784     3A    -15.688729  
       4A    -15.677414     5A    -15.660106     6A    -11.476185  
       7A    -11.319341     8A    -11.231886     9A    -11.146562  
      10A     -1.436205    11A     -1.290494    12A     -1.273160  
      13A     -1.249920    14A     -1.136351    15A     -1.026290  
      16A     -0.919672    17A     -0.887795    18A     -0.858079  
      19A     -0.835420    20A     -0.749131    21A     -0.732483  
      22A     -0.711915    23A     -0.677820    24A     -0.627004  
      25A     -0.608485    26A     -0.602227    27A     -0.513065  
      28A     -0.503722    29A     -0.500979    30A     -0.497892  
      31A     -0.470147    32A     -0.444743    33A     -0.405776  
      34A     -0.295790    35A     -0.277013    36A     -0.269447  

    Virtual:                                                              

      37A      0.081875    38A      0.122200    39A      0.141496  
      40A      0.151691    41A      0.189948    42A      0.200157  
      43A      0.228330    44A      0.259177    45A      0.273357  
      46A      0.294450    47A      0.309889    48A      0.322848  
      49A      0.351450    50A      0.376792    51A      0.383112  
      52A      0.444164    53A      0.459175    54A      0.476602  
      55A      0.539086    56A      0.559920    57A      0.591684  
      58A      0.603629    59A      0.611979    60A      0.633360  
      61A      0.649441    62A      0.664005    63A      0.665375  
      64A      0.693123    65A      0.716693    66A      0.775977  
      67A      0.796391    68A      0.800831    69A      0.812287  
      70A      0.825529    71A      0.850145    72A      0.856347  
      73A      0.868895    74A      0.887028    75A      0.910801  
      76A      0.917774    77A      0.927471    78A      0.935075  
      79A      0.947254    80A      0.950935    81A      0.984925  
      82A      0.990010    83A      1.004801    84A      1.015603  
      85A      1.017568    86A      1.086216    87A      1.107550  
      88A      1.127409    89A      1.173304    90A      1.222873  
      91A      1.239532    92A      1.247882    93A      1.254512  
      94A      1.270842    95A      1.307051    96A      1.315381  
      97A      1.336448    98A      1.388477    99A      1.408841  
     100A      1.449321   101A      1.458097   102A      1.478734  
     103A      1.499208   104A      1.537379   105A      1.552399  
     106A      1.584151   107A      1.598716   108A      1.616906  
     109A      1.634287   110A      1.646676   111A      1.655566  
     112A      1.675225   113A      1.726013   114A      1.730473  
     115A      1.753779   116A      1.759924   117A      1.810838  
     118A      1.830153   119A      1.834732   120A      1.848993  
     121A      1.868011   122A      1.892755   123A      1.908186  
     124A      1.918832   125A      1.949307   126A      1.982043  
     127A      2.001506   128A      2.015593   129A      2.031454  
     130A      2.068810   131A      2.101268   132A      2.115384  
     133A      2.126984   134A      2.135208   135A      2.159431  
     136A      2.184102   137A      2.224501   138A      2.257145  
     139A      2.268202   140A      2.318559   141A      2.330777  
     142A      2.352178   143A      2.365855   144A      2.394917  
     145A      2.429148   146A      2.447691   147A      2.478221  
     148A      2.492310   149A      2.534633   150A      2.542962  
     151A      2.577987   152A      2.625005   153A      2.654563  
     154A      2.666756   155A      2.698384   156A      2.728871  
     157A      2.747052   158A      2.820832   159A      2.831302  
     160A      2.864983   161A      2.873826   162A      2.876993  
     163A      2.894785   164A      2.902515   165A      2.945561  
     166A      3.020225   167A      3.130906   168A      3.161589  
     169A      3.177713   170A      3.182754   171A      3.217941  
     172A      3.244161   173A      3.244407   174A      3.504644  
     175A      3.641852   176A      3.681980   177A      3.696079  
     178A      3.728387   179A      3.928426   180A      3.976149  
     181A      4.058887  

    Final Occupation by Irrep:
              A 
    DOCC [    36 ]

  @RHF Final Energy:  -470.94185449083500

   => Energetics <=

    Nuclear Repulsion Energy =            430.6350630626469638
    One-Electron Energy =               -1497.6602788195136782
    Two-Electron Energy =                 596.0833612660316021
    Total Energy =                       -470.9418544908349986

Computation Completed


Properties will be evaluated at   0.000000,   0.000000,   0.000000 [a0]

Properties computed using the SCF density matrix

  Nuclear Dipole Moment: [e a0]
     X:     3.9982      Y:     3.3467      Z:     3.8646

  Electronic Dipole Moment: [e a0]
     X:     1.5261      Y:    -2.8267      Z:     2.8243

  Dipole Moment: [e a0]
     X:     5.5243      Y:     0.5200      Z:     6.6890     Total:     8.6908

  Dipole Moment: [D]
     X:    14.0413      Y:     1.3218      Z:    17.0016     Total:    22.0899


*** tstop() called on ds3 at Tue Apr 28 15:15:30 2020
Module time:
	user time   =      38.82 seconds =       0.65 minutes
	system time =      21.62 seconds =       0.36 minutes
	total time  =         81 seconds =       1.35 minutes
Total time:
	user time   =      38.82 seconds =       0.65 minutes
	system time =      21.62 seconds =       0.36 minutes
	total time  =         81 seconds =       1.35 minutes
                                     G D M A

                                 by Anthony Stone

                           version 2.2.06, 22 June 2011

               Distributed Multipoles from Gaussian wavefunctions


Starting at 15:15:30 on 28 Apr 2020 


Using SCF density matrix from file ./SSI/SSI-131ARG-134GLU-2-dimer.test.5837.fchk


                         Distributed Multipole Analysis

Standard DMA

Positions and radii in angstrom
Multipole moments in atomic units, ea_0^k for rank k

C          x =  2.334259  y = -0.071803  z = -0.281259 angstrom
           Maximum rank =  0   Radius =  0.650 angstrom
                   Q00  =  -0.081048

C          x =  1.591259  y = -0.167803  z =  2.100741 angstrom
           Maximum rank =  0   Radius =  0.650 angstrom
                   Q00  =   1.076550

N          x =  0.288259  y = -0.136803  z =  1.807741 angstrom
           Maximum rank =  0   Radius =  0.650 angstrom
                   Q00  =  -0.597004

N          x =  2.528259  y = -0.120803  z =  1.174741 angstrom
           Maximum rank =  0   Radius =  0.650 angstrom
                   Q00  =  -0.481029

N          x =  2.004259  y = -0.262803  z =  3.340741 angstrom
           Maximum rank =  0   Radius =  0.650 angstrom
                   Q00  =  -0.588523

H          x = -0.021741  y = -0.119803  z =  0.844741 angstrom
           Maximum rank =  0   Radius =  0.325 angstrom
                   Q00  =   0.313234

H          x = -0.392741  y = -0.167803  z =  2.549741 angstrom
           Maximum rank =  0   Radius =  0.325 angstrom
                   Q00  =   0.254592

H          x =  3.487259  y = -0.139803  z =  1.518741 angstrom
           Maximum rank =  0   Radius =  0.325 angstrom
                   Q00  =   0.201575

H          x =  3.011259  y = -0.318803  z =  3.471741 angstrom
           Maximum rank =  0   Radius =  0.325 angstrom
                   Q00  =   0.245384

H          x =  1.343259  y = -0.368803  z =  4.101741 angstrom
           Maximum rank =  0   Radius =  0.325 angstrom
                   Q00  =   0.262065

H          x =  1.294259  y =  0.096197  z = -0.558259 angstrom
           Maximum rank =  0   Radius =  0.325 angstrom
                   Q00  =   0.121930

H          x =  2.635259  y = -1.035803  z = -0.696259 angstrom
           Maximum rank =  0   Radius =  0.325 angstrom
                   Q00  =   0.124970

H          x =  2.981550  y =  0.706807  z = -0.711109 angstrom
           Maximum rank =  0   Radius =  0.325 angstrom
                   Q00  =   0.125783

C          x = -3.079741  y =  1.355197  z = -2.072259 angstrom
           Maximum rank =  0   Radius =  0.650 angstrom
                   Q00  =  -0.289003

C          x = -2.115741  y =  0.144197  z = -2.043259 angstrom
           Maximum rank =  0   Radius =  0.650 angstrom
                   Q00  =   0.926676

O          x = -1.459741  y = -0.113803  z = -0.999259 angstrom
           Maximum rank =  0   Radius =  0.650 angstrom
                   Q00  =  -0.953671

O          x = -2.078741  y = -0.600803  z = -3.076259 angstrom
           Maximum rank =  0   Radius =  0.650 angstrom
                   Q00  =  -0.894977

H          x = -4.090741  y =  0.986197  z = -2.264259 angstrom
           Maximum rank =  0   Radius =  0.325 angstrom
                   Q00  =   0.094924

H          x = -2.821741  y =  1.966197  z = -2.934259 angstrom
           Maximum rank =  0   Radius =  0.325 angstrom
                   Q00  =   0.089265

H          x = -3.127886  y =  1.967437  z = -1.159649 angstrom
           Maximum rank =  0   Radius =  0.325 angstrom
                   Q00  =   0.048307

Total multipoles referred to origin at
           x =   0.000000,  y =    0.000000,  z =    0.000000 angstrom
                   Q00  =  -0.000000

Finished at 15:15:30 on 28 Apr 2020 

  DMA results are available in the Python driver through the
	  variable('DMA DISTRIBUTED MULTIPOLES')
  and
	  variable('DMA TOTAL MULTIPOLES')
  commands.


    Psi4 stopped on: Tuesday, 28 April 2020 03:15PM
    Psi4 wall time for execution: 0:01:20.61

*** Psi4 exiting successfully. Buy a developer a beer!
