
    -----------------------------------------------------------------------
          Psi4: An Open-Source Ab Initio Electronic Structure Package
                               Psi4 1.3.2 release

                         Git: Rev {HEAD} ecbda83 


    R. M. Parrish, L. A. Burns, D. G. A. Smith, A. C. Simmonett,
    A. E. DePrince III, E. G. Hohenstein, U. Bozkaya, A. Yu. Sokolov,
    R. Di Remigio, R. M. Richard, J. F. Gonthier, A. M. James,
    H. R. McAlexander, A. Kumar, M. Saitow, X. Wang, B. P. Pritchard,
    P. Verma, H. F. Schaefer III, K. Patkowski, R. A. King, E. F. Valeev,
    F. A. Evangelista, J. M. Turney, T. D. Crawford, and C. D. Sherrill,
    J. Chem. Theory Comput. 13(7) pp 3185--3197 (2017).
    (doi: 10.1021/acs.jctc.7b00174)


                         Additional Contributions by
    P. Kraus, H. Kruse, M. H. Lechner, M. C. Schieber, R. A. Shaw,
    A. Alenaizan, R. Galvelis, Z. L. Glick, S. Lehtola, and J. P. Misiewicz

    -----------------------------------------------------------------------


    Psi4 started on: Sunday, 26 April 2020 04:56PM

    Process ID: 16988
    Host:       ds3
    PSIDATADIR: /theoryfs2/ds/metcalf/miniconda2/envs/tf2gpu/share/psi4
    Memory:     500.0 MiB
    Threads:    1
    
  ==> Input File <==

--------------------------------------------------------------------------
import numpy as np
set {scf_type pk
basis cc-pvdz
d_convergence 10
gdma_switch   0
gdma_limit    0
gdma_origin   [ 0.0,  0.0,  0.0 ]
}
molecule test {
    units Angstrom
    0 1
    --
    0 1
    C                1.979974434861013    -2.561352655877668     1.901534351179156
    C                1.909974434861013    -1.099352655877668     1.499534351179156
    O                2.860974434861013    -0.323352655877668     1.674534351179156
    N                0.792974434861013    -0.718352655877668     0.970534351179156
    H                0.785974434861013     0.233647344122332     0.622534351179156
    H               -0.081025565138987    -1.153352655877668     1.211534351179156
    H                1.875974434861013    -2.552352655877668     2.989534351179157
    H                2.986974434861013    -2.936352655877668     1.699534351179156
    H                1.200674434861013    -3.223142655877668     1.495664351179156
    C               -1.683025565138987    -0.041352655877668    -0.534465648820844
    C               -2.643025565138987     2.321647344122332    -1.505465648820844
    S               -1.387025565138987     1.081647344122332    -1.865465648820844
    H               -1.090025565138987    -0.935352655877668    -0.706465648820844
    H               -2.737025565138987    -0.328352655877668    -0.535465648820844
    H               -1.450025565138987     0.427647344122332     0.420534351179156
    H               -3.572025565138987     1.819647344122332    -1.231465648820844
    H               -2.834025565138987     2.923647344122332    -2.382465648820844
    H               -2.314689565138987     2.959516344122331    -0.671605648820844

}
e, wfn = energy('scf', return_wfn=True)
gdma(wfn)
dmavals = variable('DMA DISTRIBUTED MULTIPOLES')
charges = np.array(dmavals)
print(charges)
np.save('SSI-001ASN-030MET-1-dimer.npy', np.array(charges))--------------------------------------------------------------------------

*** tstart() called on ds3
*** at Sun Apr 26 16:56:50 2020

   => Loading Basis Set <=

    Name: CC-PVDZ
    Role: ORBITAL
    Keyword: BASIS
    atoms 1-2, 10-11 entry C          line   138 file /theoryfs2/ds/metcalf/miniconda2/envs/tf2gpu/share/psi4/basis/cc-pvdz.gbs 
    atoms 3          entry O          line   198 file /theoryfs2/ds/metcalf/miniconda2/envs/tf2gpu/share/psi4/basis/cc-pvdz.gbs 
    atoms 4          entry N          line   168 file /theoryfs2/ds/metcalf/miniconda2/envs/tf2gpu/share/psi4/basis/cc-pvdz.gbs 
    atoms 5-9, 13-18 entry H          line    22 file /theoryfs2/ds/metcalf/miniconda2/envs/tf2gpu/share/psi4/basis/cc-pvdz.gbs 
    atoms 12         entry S          line   598 file /theoryfs2/ds/metcalf/miniconda2/envs/tf2gpu/share/psi4/basis/cc-pvdz.gbs 


         ---------------------------------------------------------
                                   SCF
               by Justin Turney, Rob Parrish, Andy Simmonett
                          and Daniel G. A. Smith
                              RHF Reference
                        1 Threads,    500 MiB Core
         ---------------------------------------------------------

  ==> Geometry <==

    Molecular point group: c1
    Full point group: C1

    Geometry (in Angstrom), charge = 0, multiplicity = 1:

       Center              X                  Y                   Z               Mass       
    ------------   -----------------  -----------------  -----------------  -----------------
         C            1.979974434861    -2.561352655878     1.901534351179    12.000000000000
         C            1.909974434861    -1.099352655878     1.499534351179    12.000000000000
         O            2.860974434861    -0.323352655878     1.674534351179    15.994914619570
         N            0.792974434861    -0.718352655878     0.970534351179    14.003074004430
         H            0.785974434861     0.233647344122     0.622534351179     1.007825032230
         H           -0.081025565139    -1.153352655878     1.211534351179     1.007825032230
         H            1.875974434861    -2.552352655878     2.989534351179     1.007825032230
         H            2.986974434861    -2.936352655878     1.699534351179     1.007825032230
         H            1.200674434861    -3.223142655878     1.495664351179     1.007825032230
         C           -1.683025565139    -0.041352655878    -0.534465648821    12.000000000000
         C           -2.643025565139     2.321647344122    -1.505465648821    12.000000000000
         S           -1.387025565139     1.081647344122    -1.865465648821    31.972071174400
         H           -1.090025565139    -0.935352655878    -0.706465648821     1.007825032230
         H           -2.737025565139    -0.328352655878    -0.535465648821     1.007825032230
         H           -1.450025565139     0.427647344122     0.420534351179     1.007825032230
         H           -3.572025565139     1.819647344122    -1.231465648821     1.007825032230
         H           -2.834025565139     2.923647344122    -2.382465648821     1.007825032230
         H           -2.314689565139     2.959516344122    -0.671605648821     1.007825032230

  Running in c1 symmetry.

  Rotational constants: A =      0.17474  B =      0.01794  C =      0.01713 [cm^-1]
  Rotational constants: A =   5238.44484  B =    537.96569  C =    513.50340 [MHz]
  Nuclear repulsion =  349.136626889998752

  Charge       = 0
  Multiplicity = 1
  Electrons    = 66
  Nalpha       = 33
  Nbeta        = 33

  ==> Algorithm <==

  SCF Algorithm Type is PK.
  DIIS enabled.
  MOM disabled.
  Fractional occupation disabled.
  Guess Type is SAD.
  Energy threshold   = 1.00e-06
  Density threshold  = 1.00e-10
  Integral threshold = 0.00e+00

  ==> Primary Basis <==

  Basis Set: CC-PVDZ
    Blend: CC-PVDZ
    Number of shells: 77
    Number of basis function: 157
    Number of Cartesian functions: 164
    Spherical Harmonics?: true
    Max angular momentum: 2

  ==> Pre-Iterations <==

   -------------------------------------------------------
    Irrep   Nso     Nmo     Nalpha   Nbeta   Ndocc  Nsocc
   -------------------------------------------------------
     A        157     157       0       0       0       0
   -------------------------------------------------------
    Total     157     157      33      33      33       0
   -------------------------------------------------------

  ==> Integral Setup <==

  Using integral reordering PK algorithm.
  Sizing the integral batches needed.
  Building batch lookup table.
   Calculation information:
      Number of atoms:                  18
      Number of AO shells:              77
      Number of primitives:            237
      Number of atomic orbitals:       164
      Number of basis functions:       157

      Integral cutoff                 1.00e-12
      Number of threads:                 1

	Batch   1 pq = [       0,    9405] index = [             0,44231715] size =     44231715
	Batch   2 pq = [    9405,   12403] index = [      44231715,76923406] size =     32691691
  Task number: 7
  Buffer size: 11059200
  Buffer per thread: 2
  We computed 3169385 shell quartets total.
  Whereas there are 4510506 unique shell quartets.

  ==> DiskJK: Disk-Based J/K Matrices <==

    J tasked:                  Yes
    K tasked:                  Yes
    wK tasked:                  No
    Memory [MiB]:              375
    Schwarz Cutoff:          1E-12

    OpenMP threads:              1

  Minimum eigenvalue in the overlap matrix is 4.5020956765E-03.
  Using Symmetric Orthogonalization.

  SCF Guess: Superposition of Atomic Densities via on-the-fly atomic UHF.

  ==> Iterations <==

                        Total Energy        Delta E     RMS |[F,P]|

   @RHF iter SAD:  -683.66889420847156   -6.83669e+02   0.00000e+00 
   @RHF iter   1:  -684.51944144607330   -8.50547e-01   3.93793e-03 DIIS
   @RHF iter   2:  -684.68683491819058   -1.67393e-01   2.19724e-03 DIIS
   @RHF iter   3:  -684.73121378327176   -4.43789e-02   5.02854e-04 DIIS
   @RHF iter   4:  -684.73495989411401   -3.74611e-03   1.84842e-04 DIIS
   @RHF iter   5:  -684.73552308373598   -5.63190e-04   3.21207e-05 DIIS
   @RHF iter   6:  -684.73555438763060   -3.13039e-05   1.38481e-05 DIIS
   @RHF iter   7:  -684.73555965280093   -5.26517e-06   5.53202e-06 DIIS
   @RHF iter   8:  -684.73556075415513   -1.10135e-06   2.00071e-06 DIIS
   @RHF iter   9:  -684.73556090622253   -1.52067e-07   4.88304e-07 DIIS
   @RHF iter  10:  -684.73556091414389   -7.92136e-09   1.57710e-07 DIIS
   @RHF iter  11:  -684.73556091482146   -6.77574e-10   4.27724e-08 DIIS
   @RHF iter  12:  -684.73556091487205   -5.05906e-11   1.05272e-08 DIIS
   @RHF iter  13:  -684.73556091487410   -2.04636e-12   2.84740e-09 DIIS
   @RHF iter  14:  -684.73556091487421   -1.13687e-13   1.22621e-09 DIIS
   @RHF iter  15:  -684.73556091487603   -1.81899e-12   5.18081e-10 DIIS
   @RHF iter  16:  -684.73556091487512    9.09495e-13   2.01512e-10 DIIS
   @RHF iter  17:  -684.73556091487376    1.36424e-12   8.47162e-11 DIIS
  Energy and wave function converged.


  ==> Post-Iterations <==

    Orbital Energies [Eh]
    ---------------------

    Doubly Occupied:                                                      

       1A    -91.944779     2A    -20.501938     3A    -15.587749  
       4A    -11.345030     5A    -11.266645     6A    -11.264091  
       7A    -11.241010     8A     -8.949391     9A     -6.631486  
      10A     -6.629884    11A     -6.627594    12A     -1.365537  
      13A     -1.227179    14A     -1.081978    15A     -0.998893  
      16A     -0.965870    17A     -0.822219    18A     -0.802512  
      19A     -0.732284    20A     -0.654188    21A     -0.622660  
      22A     -0.616159    23A     -0.610292    24A     -0.587771  
      25A     -0.572149    26A     -0.568924    27A     -0.556567  
      28A     -0.515176    29A     -0.507300    30A     -0.439094  
      31A     -0.411378    32A     -0.402488    33A     -0.341294  

    Virtual:                                                              

      34A      0.156298    35A      0.173674    36A      0.189062  
      37A      0.189847    38A      0.214034    39A      0.218844  
      40A      0.231605    41A      0.249112    42A      0.254416  
      43A      0.269330    44A      0.272083    45A      0.281285  
      46A      0.290014    47A      0.304209    48A      0.388149  
      49A      0.458212    50A      0.508577    51A      0.544842  
      52A      0.562802    53A      0.584133    54A      0.601282  
      55A      0.620332    56A      0.652646    57A      0.675906  
      58A      0.693201    59A      0.703436    60A      0.723318  
      61A      0.726880    62A      0.745222    63A      0.774542  
      64A      0.790648    65A      0.794271    66A      0.810077  
      67A      0.835200    68A      0.856941    69A      0.860221  
      70A      0.861617    71A      0.870872    72A      0.872426  
      73A      0.879151    74A      0.889292    75A      0.902995  
      76A      0.904559    77A      0.938375    78A      0.950500  
      79A      0.959852    80A      0.972657    81A      1.023079  
      82A      1.053230    83A      1.077708    84A      1.139545  
      85A      1.151509    86A      1.210920    87A      1.249886  
      88A      1.272993    89A      1.304471    90A      1.325647  
      91A      1.357668    92A      1.364224    93A      1.368771  
      94A      1.378776    95A      1.388891    96A      1.409282  
      97A      1.448782    98A      1.470353    99A      1.520443  
     100A      1.558935   101A      1.648536   102A      1.652982  
     103A      1.664222   104A      1.670955   105A      1.702932  
     106A      1.826137   107A      1.840485   108A      1.862303  
     109A      1.870106   110A      1.877636   111A      1.893361  
     112A      1.897523   113A      1.910375   114A      1.922070  
     115A      1.943265   116A      1.970698   117A      1.975301  
     118A      1.984673   119A      1.994646   120A      2.013643  
     121A      2.027835   122A      2.061178   123A      2.076256  
     124A      2.106869   125A      2.161292   126A      2.213643  
     127A      2.218282   128A      2.234373   129A      2.340348  
     130A      2.368365   131A      2.403324   132A      2.424922  
     133A      2.432479   134A      2.447220   135A      2.459019  
     136A      2.474463   137A      2.509042   138A      2.639324  
     139A      2.684140   140A      2.726776   141A      2.741464  
     142A      2.744794   143A      2.758276   144A      2.767162  
     145A      2.794232   146A      2.804680   147A      2.809058  
     148A      2.835465   149A      2.888769   150A      3.017313  
     151A      3.093760   152A      3.129985   153A      3.277784  
     154A      3.508200   155A      3.555797   156A      3.851200  
     157A      3.894259  

    Final Occupation by Irrep:
              A 
    DOCC [    33 ]

  @RHF Final Energy:  -684.73556091487376

   => Energetics <=

    Nuclear Repulsion Energy =            349.1366268899987517
    One-Electron Energy =               -1632.9613544279138750
    Two-Electron Energy =                 599.0891666230413648
    Total Energy =                       -684.7355609148737585

Computation Completed


Properties will be evaluated at   0.000000,   0.000000,   0.000000 [a0]

Properties computed using the SCF density matrix

  Nuclear Dipole Moment: [e a0]
     X:    -6.8024      Y:    -2.5628      Z:     2.6858

  Electronic Dipole Moment: [e a0]
     X:     4.8211      Y:     1.9411      Z:    -2.4380

  Dipole Moment: [e a0]
     X:    -1.9812      Y:    -0.6217      Z:     0.2478     Total:     2.0912

  Dipole Moment: [D]
     X:    -5.0358      Y:    -1.5803      Z:     0.6298     Total:     5.3154


*** tstop() called on ds3 at Sun Apr 26 16:57:38 2020
Module time:
	user time   =      28.99 seconds =       0.48 minutes
	system time =      11.18 seconds =       0.19 minutes
	total time  =         48 seconds =       0.80 minutes
Total time:
	user time   =      28.99 seconds =       0.48 minutes
	system time =      11.18 seconds =       0.19 minutes
	total time  =         48 seconds =       0.80 minutes
                                     G D M A

                                 by Anthony Stone

                           version 2.2.06, 22 June 2011

               Distributed Multipoles from Gaussian wavefunctions


Starting at 16:57:38 on 26 Apr 2020 


Using SCF density matrix from file ./SSI/SSI-001ASN-030MET-1-dimer.test.16988.fchk


                         Distributed Multipole Analysis

Standard DMA

Positions and radii in angstrom
Multipole moments in atomic units, ea_0^k for rank k

C          x =  1.979974  y = -2.561353  z =  1.901534 angstrom
           Maximum rank =  0   Radius =  0.650 angstrom
                   Q00  =  -0.274047

C          x =  1.909974  y = -1.099353  z =  1.499534 angstrom
           Maximum rank =  0   Radius =  0.650 angstrom
                   Q00  =   0.806697

O          x =  2.860974  y = -0.323353  z =  1.674534 angstrom
           Maximum rank =  0   Radius =  0.650 angstrom
                   Q00  =  -0.803091

N          x =  0.792974  y = -0.718353  z =  0.970534 angstrom
           Maximum rank =  0   Radius =  0.650 angstrom
                   Q00  =  -0.481749

H          x =  0.785974  y =  0.233647  z =  0.622534 angstrom
           Maximum rank =  0   Radius =  0.325 angstrom
                   Q00  =   0.210539

H          x = -0.081026  y = -1.153353  z =  1.211534 angstrom
           Maximum rank =  0   Radius =  0.325 angstrom
                   Q00  =   0.205244

H          x =  1.875974  y = -2.552353  z =  2.989534 angstrom
           Maximum rank =  0   Radius =  0.325 angstrom
                   Q00  =   0.123674

H          x =  2.986974  y = -2.936353  z =  1.699534 angstrom
           Maximum rank =  0   Radius =  0.325 angstrom
                   Q00  =   0.138305

H          x =  1.200674  y = -3.223143  z =  1.495664 angstrom
           Maximum rank =  0   Radius =  0.325 angstrom
                   Q00  =   0.085126

C          x = -1.683026  y = -0.041353  z = -0.534466 angstrom
           Maximum rank =  0   Radius =  0.650 angstrom
                   Q00  =  -0.360350

C          x = -2.643026  y =  2.321647  z = -1.505466 angstrom
           Maximum rank =  0   Radius =  0.650 angstrom
                   Q00  =  -0.359378

S          x = -1.387026  y =  1.081647  z = -1.865466 angstrom
           Maximum rank =  0   Radius =  0.650 angstrom
                   Q00  =   0.146254

H          x = -1.090026  y = -0.935353  z = -0.706466 angstrom
           Maximum rank =  0   Radius =  0.325 angstrom
                   Q00  =   0.114539

H          x = -2.737026  y = -0.328353  z = -0.535466 angstrom
           Maximum rank =  0   Radius =  0.325 angstrom
                   Q00  =   0.086963

H          x = -1.450026  y =  0.427647  z =  0.420534 angstrom
           Maximum rank =  0   Radius =  0.325 angstrom
                   Q00  =   0.058188

H          x = -3.572026  y =  1.819647  z = -1.231466 angstrom
           Maximum rank =  0   Radius =  0.325 angstrom
                   Q00  =   0.087811

H          x = -2.834026  y =  2.923647  z = -2.382466 angstrom
           Maximum rank =  0   Radius =  0.325 angstrom
                   Q00  =   0.125573

H          x = -2.314690  y =  2.959516  z = -0.671606 angstrom
           Maximum rank =  0   Radius =  0.325 angstrom
                   Q00  =   0.089702

Total multipoles referred to origin at
           x =   0.000000,  y =    0.000000,  z =    0.000000 angstrom
                   Q00  =  -0.000000

Finished at 16:57:38 on 26 Apr 2020 

  DMA results are available in the Python driver through the
	  variable('DMA DISTRIBUTED MULTIPOLES')
  and
	  variable('DMA TOTAL MULTIPOLES')
  commands.


    Psi4 stopped on: Sunday, 26 April 2020 04:57PM
    Psi4 wall time for execution: 0:00:48.25

*** Psi4 exiting successfully. Buy a developer a beer!
