
    -----------------------------------------------------------------------
          Psi4: An Open-Source Ab Initio Electronic Structure Package
                               Psi4 1.3.2 release

                         Git: Rev {HEAD} ecbda83 


    R. M. Parrish, L. A. Burns, D. G. A. Smith, A. C. Simmonett,
    A. E. DePrince III, E. G. Hohenstein, U. Bozkaya, A. Yu. Sokolov,
    R. Di Remigio, R. M. Richard, J. F. Gonthier, A. M. James,
    H. R. McAlexander, A. Kumar, M. Saitow, X. Wang, B. P. Pritchard,
    P. Verma, H. F. Schaefer III, K. Patkowski, R. A. King, E. F. Valeev,
    F. A. Evangelista, J. M. Turney, T. D. Crawford, and C. D. Sherrill,
    J. Chem. Theory Comput. 13(7) pp 3185--3197 (2017).
    (doi: 10.1021/acs.jctc.7b00174)


                         Additional Contributions by
    P. Kraus, H. Kruse, M. H. Lechner, M. C. Schieber, R. A. Shaw,
    A. Alenaizan, R. Galvelis, Z. L. Glick, S. Lehtola, and J. P. Misiewicz

    -----------------------------------------------------------------------


    Psi4 started on: Monday, 27 April 2020 10:34PM

    Process ID: 31362
    Host:       ds3
    PSIDATADIR: /theoryfs2/ds/metcalf/miniconda2/envs/tf2gpu/share/psi4
    Memory:     500.0 MiB
    Threads:    1
    
  ==> Input File <==

--------------------------------------------------------------------------
import numpy as np
set {scf_type pk
basis cc-pvdz
d_convergence 10
gdma_switch   0
gdma_limit    0
gdma_origin   [ 0.0,  0.0,  0.0 ]
}
molecule test {
    units Angstrom
    0 1
    --
    0 1
    C               -0.266827729457722    -2.597181550953809    -1.042966611069642
    C               -0.853827729457722    -0.417181550953809    -2.358966611069642
    C               -1.068827729457722    -1.793181550953809    -2.017966611069642
    C               -1.836827729457722    -0.057181550953809    -3.314966611069642
    C               -2.135827729457722    -2.205181550953809    -2.754966611069642
    C                0.075172270542278     0.545818449046191    -1.957966611069643
    C               -0.011827729457722     1.827818449046191    -2.487966611069642
    C               -0.996827729457722     2.153818449046191    -3.427966611069642
    C               -1.919827729457722     1.218818449046191    -3.852966611069642
    N               -2.601827729457721    -1.171181550953809    -3.533966611069642
    H                0.863172270542278     0.276818449046191    -1.279966611069643
    H                0.700172270542278     2.583818449046191    -2.186966611069642
    H               -1.052827729457722     3.162818449046191    -3.806966611069642
    H               -0.921827729457722    -3.311181550953809    -0.538966611069642
    H                0.109172270542278    -1.911181550953809    -0.282966611069642
    H               -2.555827729457722    -3.206181550953809    -2.724966611069643
    H               -3.394827729457722    -1.241181550953809    -4.162966611069642
    H               -2.684827729457722     1.471818449046191    -4.572966611069642
    H                0.586382270542278    -3.127111550953809    -1.491531611069643
    C                1.602172270542278     1.331818449046191     1.510033388930358
    C                3.061172270542278     1.729818449046191     1.340033388930358
    C                1.335172270542278     0.599818449046191     2.788033388930358
    C                1.374172270542278    -0.789181550953809     2.822033388930358
    C                1.074172270542278     1.303818449046191     3.958033388930358
    C                1.131172270542278    -1.469181550953809     4.010033388930358
    C                0.834172270542278     0.627818449046191     5.147033388930357
    C                0.863172270542278    -0.759181550953809     5.173033388930357
    H                0.967172270542278     2.218818449046191     1.452033388930358
    H                1.323172270542278     0.671818449046191     0.698033388930358
    H                3.658172270542278     0.840818449046191     1.501033388930358
    H                1.587172270542278    -1.350181550953809     1.922033388930358
    H                1.042172270542278     2.382818449046191     3.944033388930358
    H                1.149172270542278    -2.551181550953809     4.028033388930358
    H                0.623172270542278     1.181818449046191     6.049033388930358
    H                0.670172270542278    -1.288181550953809     6.097033388930358
    H                3.330962270542278     2.481601449046191     2.096363388930357
    H                3.242022270542278     2.079900449046191     0.313033388930358

}
e, wfn = energy('scf', return_wfn=True)
gdma(wfn)
dmavals = variable('DMA DISTRIBUTED MULTIPOLES')
charges = np.array(dmavals)
print(charges)
np.save('SSI-036TRP-047PHE-1-dimer.npy', np.array(charges))--------------------------------------------------------------------------

*** tstart() called on ds3
*** at Mon Apr 27 22:34:57 2020

   => Loading Basis Set <=

    Name: CC-PVDZ
    Role: ORBITAL
    Keyword: BASIS
    atoms 1-9, 20-27   entry C          line   138 file /theoryfs2/ds/metcalf/miniconda2/envs/tf2gpu/share/psi4/basis/cc-pvdz.gbs 
    atoms 10           entry N          line   168 file /theoryfs2/ds/metcalf/miniconda2/envs/tf2gpu/share/psi4/basis/cc-pvdz.gbs 
    atoms 11-19, 28-37 entry H          line    22 file /theoryfs2/ds/metcalf/miniconda2/envs/tf2gpu/share/psi4/basis/cc-pvdz.gbs 


         ---------------------------------------------------------
                                   SCF
               by Justin Turney, Rob Parrish, Andy Simmonett
                          and Daniel G. A. Smith
                              RHF Reference
                        1 Threads,    500 MiB Core
         ---------------------------------------------------------

  ==> Geometry <==

    Molecular point group: c1
    Full point group: C1

    Geometry (in Angstrom), charge = 0, multiplicity = 1:

       Center              X                  Y                   Z               Mass       
    ------------   -----------------  -----------------  -----------------  -----------------
         C           -0.266827729458    -2.597181550954    -1.042966611070    12.000000000000
         C           -0.853827729458    -0.417181550954    -2.358966611070    12.000000000000
         C           -1.068827729458    -1.793181550954    -2.017966611070    12.000000000000
         C           -1.836827729458    -0.057181550954    -3.314966611070    12.000000000000
         C           -2.135827729458    -2.205181550954    -2.754966611070    12.000000000000
         C            0.075172270542     0.545818449046    -1.957966611070    12.000000000000
         C           -0.011827729458     1.827818449046    -2.487966611070    12.000000000000
         C           -0.996827729458     2.153818449046    -3.427966611070    12.000000000000
         C           -1.919827729458     1.218818449046    -3.852966611070    12.000000000000
         N           -2.601827729458    -1.171181550954    -3.533966611070    14.003074004430
         H            0.863172270542     0.276818449046    -1.279966611070     1.007825032230
         H            0.700172270542     2.583818449046    -2.186966611070     1.007825032230
         H           -1.052827729458     3.162818449046    -3.806966611070     1.007825032230
         H           -0.921827729458    -3.311181550954    -0.538966611070     1.007825032230
         H            0.109172270542    -1.911181550954    -0.282966611070     1.007825032230
         H           -2.555827729458    -3.206181550954    -2.724966611070     1.007825032230
         H           -3.394827729458    -1.241181550954    -4.162966611070     1.007825032230
         H           -2.684827729458     1.471818449046    -4.572966611070     1.007825032230
         H            0.586382270542    -3.127111550954    -1.491531611070     1.007825032230
         C            1.602172270542     1.331818449046     1.510033388930    12.000000000000
         C            3.061172270542     1.729818449046     1.340033388930    12.000000000000
         C            1.335172270542     0.599818449046     2.788033388930    12.000000000000
         C            1.374172270542    -0.789181550954     2.822033388930    12.000000000000
         C            1.074172270542     1.303818449046     3.958033388930    12.000000000000
         C            1.131172270542    -1.469181550954     4.010033388930    12.000000000000
         C            0.834172270542     0.627818449046     5.147033388930    12.000000000000
         C            0.863172270542    -0.759181550954     5.173033388930    12.000000000000
         H            0.967172270542     2.218818449046     1.452033388930     1.007825032230
         H            1.323172270542     0.671818449046     0.698033388930     1.007825032230
         H            3.658172270542     0.840818449046     1.501033388930     1.007825032230
         H            1.587172270542    -1.350181550954     1.922033388930     1.007825032230
         H            1.042172270542     2.382818449046     3.944033388930     1.007825032230
         H            1.149172270542    -2.551181550954     4.028033388930     1.007825032230
         H            0.623172270542     1.181818449046     6.049033388930     1.007825032230
         H            0.670172270542    -1.288181550954     6.097033388930     1.007825032230
         H            3.330962270542     2.481601449046     2.096363388930     1.007825032230
         H            3.242022270542     2.079900449046     0.313033388930     1.007825032230

  Running in c1 symmetry.

  Rotational constants: A =      0.02300  B =      0.00576  C =      0.00498 [cm^-1]
  Rotational constants: A =    689.44152  B =    172.61822  C =    149.38807 [MHz]
  Nuclear repulsion = 1151.101356657514771

  Charge       = 0
  Multiplicity = 1
  Electrons    = 128
  Nalpha       = 64
  Nbeta        = 64

  ==> Algorithm <==

  SCF Algorithm Type is PK.
  DIIS enabled.
  MOM disabled.
  Fractional occupation disabled.
  Guess Type is SAD.
  Energy threshold   = 1.00e-06
  Density threshold  = 1.00e-10
  Integral threshold = 0.00e+00

  ==> Primary Basis <==

  Basis Set: CC-PVDZ
    Blend: CC-PVDZ
    Number of shells: 165
    Number of basis function: 347
    Number of Cartesian functions: 365
    Spherical Harmonics?: true
    Max angular momentum: 2

  ==> Pre-Iterations <==

   -------------------------------------------------------
    Irrep   Nso     Nmo     Nalpha   Nbeta   Ndocc  Nsocc
   -------------------------------------------------------
     A        347     347       0       0       0       0
   -------------------------------------------------------
    Total     347     347      64      64      64       0
   -------------------------------------------------------

  ==> Integral Setup <==

  Using Yoshimine PK algorithm.
  Sizing the integral batches needed.
  Building batch lookup table.
   Calculation information:
      Number of atoms:                  37
      Number of AO shells:             165
      Number of primitives:            491
      Number of atomic orbitals:       365
      Number of basis functions:       347

      Integral cutoff                 1.00e-12
      Number of threads:                 1

	Batch   1 pq = [       0,    9405] index = [             0,44231715] size =     44231715
	Batch   2 pq = [    9405,   13301] index = [      44231715,88464951] size =     44233236
	Batch   3 pq = [   13301,   16290] index = [      88464951,132690195] size =     44225244
	Batch   4 pq = [   16290,   18810] index = [     132690195,176917455] size =     44227260
	Batch   5 pq = [   18810,   21030] index = [     176917455,221140965] size =     44223510
	Batch   6 pq = [   21030,   23037] index = [     221140965,265363203] size =     44222238
	Batch   7 pq = [   23037,   24883] index = [     265363203,309594286] size =     44231083
	Batch   8 pq = [   24883,   26601] index = [     309594286,353819901] size =     44225615
	Batch   9 pq = [   26601,   28214] index = [     353819901,398029005] size =     44209104
	Batch  10 pq = [   28214,   29740] index = [     398029005,442248670] size =     44219665
	Batch  11 pq = [   29740,   31191] index = [     442248670,486454836] size =     44206166
	Batch  12 pq = [   31191,   32578] index = [     486454836,530679331] size =     44224495
	Batch  13 pq = [   32578,   33908] index = [     530679331,574893186] size =     44213855
	Batch  14 pq = [   33908,   35188] index = [     574893186,619115266] size =     44222080
	Batch  15 pq = [   35188,   36423] index = [     619115266,663335676] size =     44220410
	Batch  16 pq = [   36423,   37617] index = [     663335676,707538153] size =     44202477
	Batch  17 pq = [   37617,   38775] index = [     707538153,751769700] size =     44231547
	Batch  18 pq = [   38775,   39899] index = [     751769700,795985050] size =     44215350
	Batch  19 pq = [   39899,   40992] index = [     795985050,840192528] size =     44207478
	Batch  20 pq = [   40992,   42057] index = [     840192528,884416653] size =     44224125
	Batch  21 pq = [   42057,   43095] index = [     884416653,928611060] size =     44194407
	Batch  22 pq = [   43095,   44109] index = [     928611060,972823995] size =     44212935
	Batch  23 pq = [   44109,   45100] index = [     972823995,1017027550] size =     44203555
	Batch  24 pq = [   45100,   46070] index = [    1017027550,1061245485] size =     44217935
	Batch  25 pq = [   46070,   47020] index = [    1061245485,1105463710] size =     44218225
	Batch  26 pq = [   47020,   47951] index = [    1105463710,1149673176] size =     44209466
	Batch  27 pq = [   47951,   48864] index = [    1149673176,1193869680] size =     44196504
	Batch  28 pq = [   48864,   49761] index = [    1193869680,1238103441] size =     44233761
	Batch  29 pq = [   49761,   50642] index = [    1238103441,1282331403] size =     44227962
	Batch  30 pq = [   50642,   51508] index = [    1282331403,1326562786] size =     44231383
	Batch  31 pq = [   51508,   52359] index = [    1326562786,1370758620] size =     44195834
	Batch  32 pq = [   52359,   53197] index = [    1370758620,1414987003] size =     44228383
	Batch  33 pq = [   53197,   54022] index = [    1414987003,1459215253] size =     44228250
	Batch  34 pq = [   54022,   54834] index = [    1459215253,1503411195] size =     44195942
	Batch  35 pq = [   54834,   55634] index = [    1503411195,1547598795] size =     44187600
	Batch  36 pq = [   55634,   56423] index = [    1547598795,1591805676] size =     44206881
	Batch  37 pq = [   56423,   57201] index = [    1591805676,1636005801] size =     44200125
	Batch  38 pq = [   57201,   57969] index = [    1636005801,1680231465] size =     44225664
	Batch  39 pq = [   57969,   58727] index = [    1680231465,1724459628] size =     44228163
	Batch  40 pq = [   58727,   59475] index = [    1724459628,1768667550] size =     44207922
	Batch  41 pq = [   59475,   60214] index = [    1768667550,1812893005] size =     44225455
	Batch  42 pq = [   60214,   60378] index = [    1812893005,1822781631] size =      9888626
