
    -----------------------------------------------------------------------
          Psi4: An Open-Source Ab Initio Electronic Structure Package
                               Psi4 1.3.2 release

                         Git: Rev {HEAD} ecbda83 


    R. M. Parrish, L. A. Burns, D. G. A. Smith, A. C. Simmonett,
    A. E. DePrince III, E. G. Hohenstein, U. Bozkaya, A. Yu. Sokolov,
    R. Di Remigio, R. M. Richard, J. F. Gonthier, A. M. James,
    H. R. McAlexander, A. Kumar, M. Saitow, X. Wang, B. P. Pritchard,
    P. Verma, H. F. Schaefer III, K. Patkowski, R. A. King, E. F. Valeev,
    F. A. Evangelista, J. M. Turney, T. D. Crawford, and C. D. Sherrill,
    J. Chem. Theory Comput. 13(7) pp 3185--3197 (2017).
    (doi: 10.1021/acs.jctc.7b00174)


                         Additional Contributions by
    P. Kraus, H. Kruse, M. H. Lechner, M. C. Schieber, R. A. Shaw,
    A. Alenaizan, R. Galvelis, Z. L. Glick, S. Lehtola, and J. P. Misiewicz

    -----------------------------------------------------------------------


    Psi4 started on: Monday, 27 April 2020 01:42PM

    Process ID: 7554
    Host:       ds3
    PSIDATADIR: /theoryfs2/ds/metcalf/miniconda2/envs/tf2gpu/share/psi4
    Memory:     500.0 MiB
    Threads:    1
    
  ==> Input File <==

--------------------------------------------------------------------------
import numpy as np
set {scf_type pk
basis cc-pvdz
d_convergence 10
gdma_switch   0
gdma_limit    0
gdma_origin   [ 0.0,  0.0,  0.0 ]
}
molecule test {
    units Angstrom
    0 1
    --
    0 1
    C                1.850668425516331    -1.838927970594395    -0.490143460207771
    C                2.925668425516330    -2.908927970594394    -0.629143460207771
    H                2.080668425516331    -1.120927970594395     0.287856539792229
    H                1.702668425516331    -1.326927970594395    -1.440143460207771
    H                0.915668425516331    -2.330927970594394    -0.223143460207771
    H                2.485668425516331    -3.772927970594395    -1.126143460207771
    H                3.283958425516331    -3.220167970594394     0.363206539792229
    H                3.763528425516331    -2.555466970594394    -1.248058460207771
    C               -0.839331574483669    -0.004927970594395     1.197856539792229
    C               -1.807331574483669     2.502072029405606     0.423856539792229
    S               -0.982331574483669     1.052072029405605    -0.275143460207771
    H               -1.811331574483669    -0.102927970594395     1.679856539792229
    H               -0.488331574483669    -0.993927970594395     0.909856539792229
    H               -0.130331574483669     0.435072029405605     1.897856539792229
    H               -2.720331574483669     2.180072029405605     0.925856539792229
    H               -2.090331574483669     3.153072029405605    -0.405143460207771
    H               -1.185841574483670     3.079072029405605     1.124445539792229

}
e, wfn = energy('scf', return_wfn=True)
gdma(wfn)
dmavals = variable('DMA DISTRIBUTED MULTIPOLES')
charges = np.array(dmavals)
print(charges)
np.save('SSI-131LEU-160MET-1-dimer.npy', np.array(charges))--------------------------------------------------------------------------

*** tstart() called on ds3
*** at Mon Apr 27 13:42:19 2020

   => Loading Basis Set <=

    Name: CC-PVDZ
    Role: ORBITAL
    Keyword: BASIS
    atoms 1-2, 9-10  entry C          line   138 file /theoryfs2/ds/metcalf/miniconda2/envs/tf2gpu/share/psi4/basis/cc-pvdz.gbs 
    atoms 3-8, 12-17 entry H          line    22 file /theoryfs2/ds/metcalf/miniconda2/envs/tf2gpu/share/psi4/basis/cc-pvdz.gbs 
    atoms 11         entry S          line   598 file /theoryfs2/ds/metcalf/miniconda2/envs/tf2gpu/share/psi4/basis/cc-pvdz.gbs 


         ---------------------------------------------------------
                                   SCF
               by Justin Turney, Rob Parrish, Andy Simmonett
                          and Daniel G. A. Smith
                              RHF Reference
                        1 Threads,    500 MiB Core
         ---------------------------------------------------------

  ==> Geometry <==

    Molecular point group: c1
    Full point group: C1

    Geometry (in Angstrom), charge = 0, multiplicity = 1:

       Center              X                  Y                   Z               Mass       
    ------------   -----------------  -----------------  -----------------  -----------------
         C            1.850668425516    -1.838927970594    -0.490143460208    12.000000000000
         C            2.925668425516    -2.908927970594    -0.629143460208    12.000000000000
         H            2.080668425516    -1.120927970594     0.287856539792     1.007825032230
         H            1.702668425516    -1.326927970594    -1.440143460208     1.007825032230
         H            0.915668425516    -2.330927970594    -0.223143460208     1.007825032230
         H            2.485668425516    -3.772927970594    -1.126143460208     1.007825032230
         H            3.283958425516    -3.220167970594     0.363206539792     1.007825032230
         H            3.763528425516    -2.555466970594    -1.248058460208     1.007825032230
         C           -0.839331574484    -0.004927970594     1.197856539792    12.000000000000
         C           -1.807331574484     2.502072029406     0.423856539792    12.000000000000
         S           -0.982331574484     1.052072029406    -0.275143460208    31.972071174400
         H           -1.811331574484    -0.102927970594     1.679856539792     1.007825032230
         H           -0.488331574484    -0.993927970594     0.909856539792     1.007825032230
         H           -0.130331574484     0.435072029406     1.897856539792     1.007825032230
         H           -2.720331574484     2.180072029406     0.925856539792     1.007825032230
         H           -2.090331574484     3.153072029406    -0.405143460208     1.007825032230
         H           -1.185841574484     3.079072029406     1.124445539792     1.007825032230

  Running in c1 symmetry.

  Rotational constants: A =      0.34670  B =      0.02799  C =      0.02671 [cm^-1]
  Rotational constants: A =  10393.68767  B =    839.16470  C =    800.75265 [MHz]
  Nuclear repulsion =  218.590797301708392

  Charge       = 0
  Multiplicity = 1
  Electrons    = 52
  Nalpha       = 26
  Nbeta        = 26

  ==> Algorithm <==

  SCF Algorithm Type is PK.
  DIIS enabled.
  MOM disabled.
  Fractional occupation disabled.
  Guess Type is SAD.
  Energy threshold   = 1.00e-06
  Density threshold  = 1.00e-10
  Integral threshold = 0.00e+00

  ==> Primary Basis <==

  Basis Set: CC-PVDZ
    Blend: CC-PVDZ
    Number of shells: 68
    Number of basis function: 134
    Number of Cartesian functions: 139
    Spherical Harmonics?: true
    Max angular momentum: 2

  ==> Pre-Iterations <==

   -------------------------------------------------------
    Irrep   Nso     Nmo     Nalpha   Nbeta   Ndocc  Nsocc
   -------------------------------------------------------
     A        134     134       0       0       0       0
   -------------------------------------------------------
    Total     134     134      26      26      26       0
   -------------------------------------------------------

  ==> Integral Setup <==

  Using integral reordering PK algorithm.
  Sizing the integral batches needed.
  Building batch lookup table.
   Calculation information:
      Number of atoms:                  17
      Number of AO shells:              68
      Number of primitives:            198
      Number of atomic orbitals:       139
      Number of basis functions:       134

      Integral cutoff                 1.00e-12
      Number of threads:                 1

	Batch   1 pq = [       0,    9045] index = [             0,40910535] size =     40910535
  Task number: 4
  Buffer size: 11059200
  Buffer per thread: 2
  We computed 2009815 shell quartets total.
  Whereas there are 2753031 unique shell quartets.

  ==> DiskJK: Disk-Based J/K Matrices <==

    J tasked:                  Yes
    K tasked:                  Yes
    wK tasked:                  No
    Memory [MiB]:              375
    Schwarz Cutoff:          1E-12

    OpenMP threads:              1

  Minimum eigenvalue in the overlap matrix is 6.6139488054E-03.
  Using Symmetric Orthogonalization.

  SCF Guess: Superposition of Atomic Densities via on-the-fly atomic UHF.

  ==> Iterations <==

                        Total Energy        Delta E     RMS |[F,P]|

   @RHF iter SAD:  -554.87151780468434   -5.54872e+02   0.00000e+00 
   @RHF iter   1:  -555.84540420835560   -9.73886e-01   3.37284e-03 DIIS
   @RHF iter   2:  -555.96867797414973   -1.23274e-01   1.33572e-03 DIIS
   @RHF iter   3:  -555.98661610549891   -1.79381e-02   3.14432e-04 DIIS
   @RHF iter   4:  -555.98846542278397   -1.84932e-03   4.83883e-05 DIIS
   @RHF iter   5:  -555.98850393536134   -3.85126e-05   1.07734e-05 DIIS
   @RHF iter   6:  -555.98850592246890   -1.98711e-06   2.62520e-06 DIIS
   @RHF iter   7:  -555.98850603028450   -1.07816e-07   6.74016e-07 DIIS
   @RHF iter   8:  -555.98850603831909   -8.03459e-09   1.70163e-07 DIIS
   @RHF iter   9:  -555.98850603909011   -7.71024e-10   5.82254e-08 DIIS
   @RHF iter  10:  -555.98850603918549   -9.53833e-11   1.89288e-08 DIIS
   @RHF iter  11:  -555.98850603919539   -9.89075e-12   5.71641e-09 DIIS
   @RHF iter  12:  -555.98850603919834   -2.95586e-12   2.12049e-09 DIIS
   @RHF iter  13:  -555.98850603919777    5.68434e-13   6.65445e-10 DIIS
   @RHF iter  14:  -555.98850603919777    0.00000e+00   1.75527e-10 DIIS
   @RHF iter  15:  -555.98850603919766    1.13687e-13   5.27076e-11 DIIS
  Energy and wave function converged.


  ==> Post-Iterations <==

    Orbital Energies [Eh]
    ---------------------

    Doubly Occupied:                                                      

       1A    -91.935799     2A    -11.256667     3A    -11.254190  
       4A    -11.217688     5A    -11.214324     6A     -8.938995  
       7A     -6.621038     8A     -6.619469     9A     -6.617233  
      10A     -1.056469    11A     -1.019054    12A     -0.949885  
      13A     -0.836649    14A     -0.805033    15A     -0.603577  
      16A     -0.598991    17A     -0.598116    18A     -0.593361  
      19A     -0.572434    20A     -0.560940    21A     -0.502369  
      22A     -0.494749    23A     -0.485668    24A     -0.479841  
      25A     -0.424954    26A     -0.331166  

    Virtual:                                                              

      27A      0.174175    28A      0.181862    29A      0.195619  
      30A      0.226932    31A      0.232486    32A      0.237719  
      33A      0.251882    34A      0.253255    35A      0.265786  
      36A      0.276832    37A      0.284957    38A      0.297408  
      39A      0.313560    40A      0.359731    41A      0.400515  
      42A      0.514606    43A      0.555074    44A      0.579488  
      45A      0.594266    46A      0.602099    47A      0.616305  
      48A      0.623723    49A      0.645904    50A      0.686990  
      51A      0.719162    52A      0.726505    53A      0.743444  
      54A      0.786589    55A      0.802236    56A      0.820260  
      57A      0.848285    58A      0.863037    59A      0.874331  
      60A      0.880365    61A      0.886196    62A      0.892436  
      63A      0.893553    64A      0.898793    65A      0.904274  
      66A      0.915302    67A      0.917430    68A      0.941043  
      69A      0.943939    70A      0.958999    71A      0.983929  
      72A      1.006516    73A      1.118272    74A      1.136787  
      75A      1.187863    76A      1.226205    77A      1.267522  
      78A      1.293795    79A      1.311184    80A      1.357747  
      81A      1.391060    82A      1.461255    83A      1.474494  
      84A      1.478517    85A      1.505751    86A      1.599701  
      87A      1.669939    88A      1.675234    89A      1.685541  
      90A      1.698637    91A      1.856002    92A      1.862568  
      93A      1.876365    94A      1.882067    95A      1.895270  
      96A      1.913486    97A      1.916544    98A      1.930380  
      99A      1.936172   100A      1.945061   101A      1.952377  
     102A      1.968899   103A      1.974608   104A      1.987662  
     105A      2.006353   106A      2.029001   107A      2.039389  
     108A      2.064393   109A      2.135973   110A      2.161795  
     111A      2.227230   112A      2.236118   113A      2.314376  
     114A      2.318687   115A      2.401539   116A      2.431185  
     117A      2.437826   118A      2.441159   119A      2.443336  
     120A      2.461935   121A      2.591517   122A      2.592537  
     123A      2.728130   124A      2.755058   125A      2.763044  
     126A      2.767851   127A      2.785725   128A      2.799158  
     129A      2.816890   130A      2.838557   131A      2.848422  
     132A      2.854976   133A      2.940785   134A      2.970965  

    Final Occupation by Irrep:
              A 
    DOCC [    26 ]

  @RHF Final Energy:  -555.98850603919766

   => Energetics <=

    Nuclear Repulsion Energy =            218.5907973017083918
    One-Electron Energy =               -1195.9812882949222512
    Two-Electron Energy =                 421.4019849540163136
    Total Energy =                       -555.9885060391975458

Computation Completed


Properties will be evaluated at   0.000000,   0.000000,   0.000000 [a0]

Properties computed using the SCF density matrix

  Nuclear Dipole Moment: [e a0]
     X:     5.4167      Y:    -6.1379      Z:     2.5673

  Electronic Dipole Moment: [e a0]
     X:    -5.6180      Y:     6.2389      Z:    -1.9750

  Dipole Moment: [e a0]
     X:    -0.2013      Y:     0.1010      Z:     0.5923     Total:     0.6336

  Dipole Moment: [D]
     X:    -0.5116      Y:     0.2567      Z:     1.5054     Total:     1.6105


*** tstop() called on ds3 at Mon Apr 27 13:42:45 2020
Module time:
	user time   =      18.78 seconds =       0.31 minutes
	system time =       7.46 seconds =       0.12 minutes
	total time  =         26 seconds =       0.43 minutes
Total time:
	user time   =      18.78 seconds =       0.31 minutes
	system time =       7.46 seconds =       0.12 minutes
	total time  =         26 seconds =       0.43 minutes
                                     G D M A

                                 by Anthony Stone

                           version 2.2.06, 22 June 2011

               Distributed Multipoles from Gaussian wavefunctions


Starting at 13:42:45 on 27 Apr 2020 


Using SCF density matrix from file ./SSI/SSI-131LEU-160MET-1-dimer.test.7554.fchk


                         Distributed Multipole Analysis

Standard DMA

Positions and radii in angstrom
Multipole moments in atomic units, ea_0^k for rank k

C          x =  1.850668  y = -1.838928  z = -0.490143 angstrom
           Maximum rank =  0   Radius =  0.650 angstrom
                   Q00  =  -0.243954

C          x =  2.925668  y = -2.908928  z = -0.629143 angstrom
           Maximum rank =  0   Radius =  0.650 angstrom
                   Q00  =  -0.236667

H          x =  2.080668  y = -1.120928  z =  0.287857 angstrom
           Maximum rank =  0   Radius =  0.325 angstrom
                   Q00  =   0.080208

H          x =  1.702668  y = -1.326928  z = -1.440143 angstrom
           Maximum rank =  0   Radius =  0.325 angstrom
                   Q00  =   0.088753

H          x =  0.915668  y = -2.330928  z = -0.223143 angstrom
           Maximum rank =  0   Radius =  0.325 angstrom
                   Q00  =   0.071835

H          x =  2.485668  y = -3.772928  z = -1.126143 angstrom
           Maximum rank =  0   Radius =  0.325 angstrom
                   Q00  =   0.082579

H          x =  3.283958  y = -3.220168  z =  0.363207 angstrom
           Maximum rank =  0   Radius =  0.325 angstrom
                   Q00  =   0.077406

H          x =  3.763528  y = -2.555467  z = -1.248058 angstrom
           Maximum rank =  0   Radius =  0.325 angstrom
                   Q00  =   0.079797

C          x = -0.839332  y = -0.004928  z =  1.197857 angstrom
           Maximum rank =  0   Radius =  0.650 angstrom
                   Q00  =  -0.356515

C          x = -1.807332  y =  2.502072  z =  0.423857 angstrom
           Maximum rank =  0   Radius =  0.650 angstrom
                   Q00  =  -0.369988

S          x = -0.982332  y =  1.052072  z = -0.275143 angstrom
           Maximum rank =  0   Radius =  0.650 angstrom
                   Q00  =   0.121328

H          x = -1.811332  y = -0.102928  z =  1.679857 angstrom
           Maximum rank =  0   Radius =  0.325 angstrom
                   Q00  =   0.088541

H          x = -0.488332  y = -0.993928  z =  0.909857 angstrom
           Maximum rank =  0   Radius =  0.325 angstrom
                   Q00  =   0.129825

H          x = -0.130332  y =  0.435072  z =  1.897857 angstrom
           Maximum rank =  0   Radius =  0.325 angstrom
                   Q00  =   0.088521

H          x = -2.720332  y =  2.180072  z =  0.925857 angstrom
           Maximum rank =  0   Radius =  0.325 angstrom
                   Q00  =   0.087211

H          x = -2.090332  y =  3.153072  z = -0.405143 angstrom
           Maximum rank =  0   Radius =  0.325 angstrom
                   Q00  =   0.120107

H          x = -1.185842  y =  3.079072  z =  1.124446 angstrom
           Maximum rank =  0   Radius =  0.325 angstrom
                   Q00  =   0.091014

Total multipoles referred to origin at
           x =   0.000000,  y =    0.000000,  z =    0.000000 angstrom
                   Q00  =  -0.000000

Finished at 13:42:45 on 27 Apr 2020 

  DMA results are available in the Python driver through the
	  variable('DMA DISTRIBUTED MULTIPOLES')
  and
	  variable('DMA TOTAL MULTIPOLES')
  commands.


    Psi4 stopped on: Monday, 27 April 2020 01:42PM
    Psi4 wall time for execution: 0:00:25.93

*** Psi4 exiting successfully. Buy a developer a beer!
