
    -----------------------------------------------------------------------
          Psi4: An Open-Source Ab Initio Electronic Structure Package
                               Psi4 1.3.2 release

                         Git: Rev {HEAD} ecbda83 


    R. M. Parrish, L. A. Burns, D. G. A. Smith, A. C. Simmonett,
    A. E. DePrince III, E. G. Hohenstein, U. Bozkaya, A. Yu. Sokolov,
    R. Di Remigio, R. M. Richard, J. F. Gonthier, A. M. James,
    H. R. McAlexander, A. Kumar, M. Saitow, X. Wang, B. P. Pritchard,
    P. Verma, H. F. Schaefer III, K. Patkowski, R. A. King, E. F. Valeev,
    F. A. Evangelista, J. M. Turney, T. D. Crawford, and C. D. Sherrill,
    J. Chem. Theory Comput. 13(7) pp 3185--3197 (2017).
    (doi: 10.1021/acs.jctc.7b00174)


                         Additional Contributions by
    P. Kraus, H. Kruse, M. H. Lechner, M. C. Schieber, R. A. Shaw,
    A. Alenaizan, R. Galvelis, Z. L. Glick, S. Lehtola, and J. P. Misiewicz

    -----------------------------------------------------------------------


    Psi4 started on: Sunday, 26 April 2020 10:57PM

    Process ID: 18968
    Host:       ds3
    PSIDATADIR: /theoryfs2/ds/metcalf/miniconda2/envs/tf2gpu/share/psi4
    Memory:     500.0 MiB
    Threads:    1
    
  ==> Input File <==

--------------------------------------------------------------------------
import numpy as np
set {scf_type pk
basis cc-pvdz
d_convergence 10
gdma_switch   0
gdma_limit    0
gdma_origin   [ 0.0,  0.0,  0.0 ]
}
molecule test {
    units Angstrom
    0 1
    --
    0 1
    C                1.150143513240750    -1.054037858445537    -1.642452695143331
    C                2.385143513240751    -0.884037858445537    -2.518452695143331
    H                1.106143513240750    -2.056037858445537    -1.219452695143331
    H                1.243143513240751    -0.331037858445537    -0.836452695143331
    H                0.247143513240750    -0.844037858445537    -2.216452695143331
    H                2.394143513240750     0.132962141554463    -2.908452695143330
    H                2.383703513240750    -1.601507858445537    -3.352263695143331
    H                3.284803513240750    -1.047897858445537    -1.907087695143331
    C               -1.277856486759249     0.333962141554463     0.943547304856669
    C               -0.959856486759250    -0.230037858445537     2.329547304856669
    C               -1.377856486759250     1.857962141554463     0.946547304856669
    H               -0.531856486759250     0.013962141554463     0.229547304856669
    H               -2.238856486759250    -0.078037858445537     0.630547304856669
    H               -1.003856486759249    -1.320037858445537     2.277547304856669
    H               -1.744856486759250     0.094962141554463     3.015547304856669
    H               -2.031856486759250     2.178962141554462     1.760547304856669
    H               -0.383856486759250     2.283962141554462     1.097547304856669
    H                0.016923513240750     0.068522141554463     2.737914304856669
    H               -1.784956486759250     2.221752141554463    -0.008401695143331

}
e, wfn = energy('scf', return_wfn=True)
gdma(wfn)
dmavals = variable('DMA DISTRIBUTED MULTIPOLES')
charges = np.array(dmavals)
print(charges)
np.save('SSI-007THR-031LYS-1-dimer.npy', np.array(charges))--------------------------------------------------------------------------

*** tstart() called on ds3
*** at Sun Apr 26 22:57:08 2020

   => Loading Basis Set <=

    Name: CC-PVDZ
    Role: ORBITAL
    Keyword: BASIS
    atoms 1-2, 9-11  entry C          line   138 file /theoryfs2/ds/metcalf/miniconda2/envs/tf2gpu/share/psi4/basis/cc-pvdz.gbs 
    atoms 3-8, 12-19 entry H          line    22 file /theoryfs2/ds/metcalf/miniconda2/envs/tf2gpu/share/psi4/basis/cc-pvdz.gbs 


         ---------------------------------------------------------
                                   SCF
               by Justin Turney, Rob Parrish, Andy Simmonett
                          and Daniel G. A. Smith
                              RHF Reference
                        1 Threads,    500 MiB Core
         ---------------------------------------------------------

  ==> Geometry <==

    Molecular point group: c1
    Full point group: C1

    Geometry (in Angstrom), charge = 0, multiplicity = 1:

       Center              X                  Y                   Z               Mass       
    ------------   -----------------  -----------------  -----------------  -----------------
         C            1.150143513241    -1.054037858446    -1.642452695143    12.000000000000
         C            2.385143513241    -0.884037858446    -2.518452695143    12.000000000000
         H            1.106143513241    -2.056037858446    -1.219452695143     1.007825032230
         H            1.243143513241    -0.331037858446    -0.836452695143     1.007825032230
         H            0.247143513241    -0.844037858446    -2.216452695143     1.007825032230
         H            2.394143513241     0.132962141554    -2.908452695143     1.007825032230
         H            2.383703513241    -1.601507858446    -3.352263695143     1.007825032230
         H            3.284803513241    -1.047897858446    -1.907087695143     1.007825032230
         C           -1.277856486759     0.333962141554     0.943547304857    12.000000000000
         C           -0.959856486759    -0.230037858446     2.329547304857    12.000000000000
         C           -1.377856486759     1.857962141554     0.946547304857    12.000000000000
         H           -0.531856486759     0.013962141554     0.229547304857     1.007825032230
         H           -2.238856486759    -0.078037858446     0.630547304857     1.007825032230
         H           -1.003856486759    -1.320037858446     2.277547304857     1.007825032230
         H           -1.744856486759     0.094962141554     3.015547304857     1.007825032230
         H           -2.031856486759     2.178962141554     1.760547304857     1.007825032230
         H           -0.383856486759     2.283962141554     1.097547304857     1.007825032230
         H            0.016923513241     0.068522141554     2.737914304857     1.007825032230
         H           -1.784956486759     2.221752141554    -0.008401695143     1.007825032230

  Running in c1 symmetry.

  Rotational constants: A =      0.22673  B =      0.03628  C =      0.03313 [cm^-1]
  Rotational constants: A =   6797.16879  B =   1087.76388  C =    993.21237 [MHz]
  Nuclear repulsion =  175.679590707024715

  Charge       = 0
  Multiplicity = 1
  Electrons    = 44
  Nalpha       = 22
  Nbeta        = 22

  ==> Algorithm <==

  SCF Algorithm Type is PK.
  DIIS enabled.
  MOM disabled.
  Fractional occupation disabled.
  Guess Type is SAD.
  Energy threshold   = 1.00e-06
  Density threshold  = 1.00e-10
  Integral threshold = 0.00e+00

  ==> Primary Basis <==

  Basis Set: CC-PVDZ
    Blend: CC-PVDZ
    Number of shells: 72
    Number of basis function: 140
    Number of Cartesian functions: 145
    Spherical Harmonics?: true
    Max angular momentum: 2

  ==> Pre-Iterations <==

   -------------------------------------------------------
    Irrep   Nso     Nmo     Nalpha   Nbeta   Ndocc  Nsocc
   -------------------------------------------------------
     A        140     140       0       0       0       0
   -------------------------------------------------------
    Total     140     140      22      22      22       0
   -------------------------------------------------------

  ==> Integral Setup <==

  Using integral reordering PK algorithm.
  Sizing the integral batches needed.
  Building batch lookup table.
   Calculation information:
      Number of atoms:                  19
      Number of AO shells:              72
      Number of primitives:            180
      Number of atomic orbitals:       145
      Number of basis functions:       140

      Integral cutoff                 1.00e-12
      Number of threads:                 1

	Batch   1 pq = [       0,    9405] index = [             0,44231715] size =     44231715
	Batch   2 pq = [    9405,    9870] index = [      44231715,48713385] size =      4481670
  Task number: 5
  Buffer size: 11059200
  Buffer per thread: 2
  We computed 2748049 shell quartets total.
  Whereas there are 3454506 unique shell quartets.

  ==> DiskJK: Disk-Based J/K Matrices <==

    J tasked:                  Yes
    K tasked:                  Yes
    wK tasked:                  No
    Memory [MiB]:              375
    Schwarz Cutoff:          1E-12

    OpenMP threads:              1

  Minimum eigenvalue in the overlap matrix is 5.3454005589E-03.
  Using Symmetric Orthogonalization.

  SCF Guess: Superposition of Atomic Densities via on-the-fly atomic UHF.

  ==> Iterations <==

                        Total Energy        Delta E     RMS |[F,P]|

   @RHF iter SAD:  -196.38549569820427   -1.96385e+02   0.00000e+00 
   @RHF iter   1:  -197.31065212270951   -9.25156e-01   3.81014e-03 DIIS
   @RHF iter   2:  -197.47105420943140   -1.60402e-01   1.64036e-03 DIIS
   @RHF iter   3:  -197.49945091168019   -2.83967e-02   3.26196e-04 DIIS
   @RHF iter   4:  -197.50167799427260   -2.22708e-03   4.74878e-05 DIIS
   @RHF iter   5:  -197.50171628993465   -3.82957e-05   1.45431e-05 DIIS
   @RHF iter   6:  -197.50171953119997   -3.24127e-06   2.52750e-06 DIIS
   @RHF iter   7:  -197.50171964299216   -1.11792e-07   4.54364e-07 DIIS
   @RHF iter   8:  -197.50171964732874   -4.33658e-09   1.11795e-07 DIIS
   @RHF iter   9:  -197.50171964757703   -2.48292e-10   3.66681e-08 DIIS
   @RHF iter  10:  -197.50171964760673   -2.97007e-11   8.06662e-09 DIIS
   @RHF iter  11:  -197.50171964760938   -2.64322e-12   1.54188e-09 DIIS
   @RHF iter  12:  -197.50171964760924    1.42109e-13   2.68684e-10 DIIS
   @RHF iter  13:  -197.50171964760881    4.26326e-13   4.78030e-11 DIIS
  Energy and wave function converged.


  ==> Post-Iterations <==

    Orbital Energies [Eh]
    ---------------------

    Doubly Occupied:                                                      

       1A    -11.219269     2A    -11.217136     3A    -11.216186  
       4A    -11.215285     5A    -11.214965     6A     -1.052350  
       7A     -1.021641     8A     -0.922521     9A     -0.836874  
      10A     -0.795922    11A     -0.626497    12A     -0.602109  
      13A     -0.600076    14A     -0.592893    15A     -0.547925  
      16A     -0.529892    17A     -0.502068    18A     -0.490211  
      19A     -0.487140    20A     -0.469535    21A     -0.466338  
      22A     -0.463287  

    Virtual:                                                              

      23A      0.171150    24A      0.194841    25A      0.220350  
      26A      0.226037    27A      0.233357    28A      0.255551  
      29A      0.257694    30A      0.260863    31A      0.272520  
      32A      0.280462    33A      0.296363    34A      0.305043  
      35A      0.308642    36A      0.331940    37A      0.379966  
      38A      0.414341    39A      0.428144    40A      0.576283  
      41A      0.591458    42A      0.599654    43A      0.612104  
      44A      0.614016    45A      0.618103    46A      0.627180  
      47A      0.667142    48A      0.686030    49A      0.731385  
      50A      0.794947    51A      0.818732    52A      0.852108  
      53A      0.872771    54A      0.882496    55A      0.886808  
      56A      0.892685    57A      0.894746    58A      0.898886  
      59A      0.901045    60A      0.903216    61A      0.908241  
      62A      0.911824    63A      0.924983    64A      0.929316  
      65A      0.948253    66A      0.965433    67A      0.986048  
      68A      1.043182    69A      1.122872    70A      1.125788  
      71A      1.132711    72A      1.148390    73A      1.230832  
      74A      1.313587    75A      1.383774    76A      1.458034  
      77A      1.477206    78A      1.478573    79A      1.491262  
      80A      1.526844    81A      1.586115    82A      1.645651  
      83A      1.670951    84A      1.677050    85A      1.690200  
      86A      1.694853    87A      1.702394    88A      1.842646  
      89A      1.854009    90A      1.860000    91A      1.872005  
      92A      1.889404    93A      1.907059    94A      1.921584  
      95A      1.933786    96A      1.943624    97A      1.944879  
      98A      1.954943    99A      1.958513   100A      1.960738  
     101A      1.968973   102A      1.975351   103A      1.988185  
     104A      1.998641   105A      2.011823   106A      2.036961  
     107A      2.073598   108A      2.108870   109A      2.116789  
     110A      2.126736   111A      2.152265   112A      2.290278  
     113A      2.294344   114A      2.305399   115A      2.320587  
     116A      2.329917   117A      2.353350   118A      2.460493  
     119A      2.473164   120A      2.492911   121A      2.535702  
     122A      2.565955   123A      2.577138   124A      2.583862  
     125A      2.611603   126A      2.627094   127A      2.751591  
     128A      2.760388   129A      2.770148   130A      2.785983  
     131A      2.802256   132A      2.820555   133A      2.839700  
     134A      2.848971   135A      2.924581   136A      2.947883  
     137A      2.952176   138A      2.964949   139A      2.982650  
     140A      3.107917  

    Final Occupation by Irrep:
              A 
    DOCC [    22 ]

  @RHF Final Energy:  -197.50171964760881

   => Energetics <=

    Nuclear Repulsion Energy =            175.6795907070247154
    One-Electron Energy =                -612.1823817279973809
    Two-Electron Energy =                 239.0010713733638568
    Total Energy =                       -197.5017196476088088

Computation Completed


Properties will be evaluated at   0.000000,   0.000000,   0.000000 [a0]

Properties computed using the SCF density matrix

  Nuclear Dipole Moment: [e a0]
     X:     0.8961      Y:    -0.2658      Z:    -0.6556

  Electronic Dipole Moment: [e a0]
     X:    -0.8886      Y:     0.2332      Z:     0.6128

  Dipole Moment: [e a0]
     X:     0.0076      Y:    -0.0326      Z:    -0.0428     Total:     0.0543

  Dipole Moment: [D]
     X:     0.0192      Y:    -0.0828      Z:    -0.1088     Total:     0.1380


*** tstop() called on ds3 at Sun Apr 26 22:57:58 2020
Module time:
	user time   =      14.23 seconds =       0.24 minutes
	system time =       5.20 seconds =       0.09 minutes
	total time  =         50 seconds =       0.83 minutes
Total time:
	user time   =      14.23 seconds =       0.24 minutes
	system time =       5.20 seconds =       0.09 minutes
	total time  =         50 seconds =       0.83 minutes
                                     G D M A

                                 by Anthony Stone

                           version 2.2.06, 22 June 2011

               Distributed Multipoles from Gaussian wavefunctions


Starting at 22:57:58 on 26 Apr 2020 


Using SCF density matrix from file ./SSI/SSI-007THR-031LYS-1-dimer.test.18968.fchk


                         Distributed Multipole Analysis

Standard DMA

Positions and radii in angstrom
Multipole moments in atomic units, ea_0^k for rank k

C          x =  1.150144  y = -1.054038  z = -1.642453 angstrom
           Maximum rank =  0   Radius =  0.650 angstrom
                   Q00  =  -0.246833

C          x =  2.385144  y = -0.884038  z = -2.518453 angstrom
           Maximum rank =  0   Radius =  0.650 angstrom
                   Q00  =  -0.220275

H          x =  1.106144  y = -2.056038  z = -1.219453 angstrom
           Maximum rank =  0   Radius =  0.325 angstrom
                   Q00  =   0.082364

H          x =  1.243144  y = -0.331038  z = -0.836453 angstrom
           Maximum rank =  0   Radius =  0.325 angstrom
                   Q00  =   0.072630

H          x =  0.247144  y = -0.844038  z = -2.216453 angstrom
           Maximum rank =  0   Radius =  0.325 angstrom
                   Q00  =   0.079229

H          x =  2.394144  y =  0.132962  z = -2.908453 angstrom
           Maximum rank =  0   Radius =  0.325 angstrom
                   Q00  =   0.079367

H          x =  2.383704  y = -1.601508  z = -3.352264 angstrom
           Maximum rank =  0   Radius =  0.325 angstrom
                   Q00  =   0.078753

H          x =  3.284804  y = -1.047898  z = -1.907088 angstrom
           Maximum rank =  0   Radius =  0.325 angstrom
                   Q00  =   0.077553

C          x = -1.277856  y =  0.333962  z =  0.943547 angstrom
           Maximum rank =  0   Radius =  0.650 angstrom
                   Q00  =  -0.087620

C          x = -0.959856  y = -0.230038  z =  2.329547 angstrom
           Maximum rank =  0   Radius =  0.650 angstrom
                   Q00  =  -0.248236

C          x = -1.377856  y =  1.857962  z =  0.946547 angstrom
           Maximum rank =  0   Radius =  0.650 angstrom
                   Q00  =  -0.239268

H          x = -0.531856  y =  0.013962  z =  0.229547 angstrom
           Maximum rank =  0   Radius =  0.325 angstrom
                   Q00  =   0.059476

H          x = -2.238856  y = -0.078038  z =  0.630547 angstrom
           Maximum rank =  0   Radius =  0.325 angstrom
                   Q00  =   0.044508

H          x = -1.003856  y = -1.320038  z =  2.277547 angstrom
           Maximum rank =  0   Radius =  0.325 angstrom
                   Q00  =   0.081334

H          x = -1.744856  y =  0.094962  z =  3.015547 angstrom
           Maximum rank =  0   Radius =  0.325 angstrom
                   Q00  =   0.075575

H          x = -2.031856  y =  2.178962  z =  1.760547 angstrom
           Maximum rank =  0   Radius =  0.325 angstrom
                   Q00  =   0.076191

H          x = -0.383856  y =  2.283962  z =  1.097547 angstrom
           Maximum rank =  0   Radius =  0.325 angstrom
                   Q00  =   0.075225

H          x =  0.016924  y =  0.068522  z =  2.737914 angstrom
           Maximum rank =  0   Radius =  0.325 angstrom
                   Q00  =   0.078467

H          x = -1.784956  y =  2.221752  z = -0.008402 angstrom
           Maximum rank =  0   Radius =  0.325 angstrom
                   Q00  =   0.081561

Total multipoles referred to origin at
           x =   0.000000,  y =    0.000000,  z =    0.000000 angstrom
                   Q00  =  -0.000000

Finished at 22:57:58 on 26 Apr 2020 

  DMA results are available in the Python driver through the
	  variable('DMA DISTRIBUTED MULTIPOLES')
  and
	  variable('DMA TOTAL MULTIPOLES')
  commands.


    Psi4 stopped on: Sunday, 26 April 2020 10:57PM
    Psi4 wall time for execution: 0:00:49.76

*** Psi4 exiting successfully. Buy a developer a beer!
