
    -----------------------------------------------------------------------
          Psi4: An Open-Source Ab Initio Electronic Structure Package
                               Psi4 1.3.2 release

                         Git: Rev {HEAD} ecbda83 


    R. M. Parrish, L. A. Burns, D. G. A. Smith, A. C. Simmonett,
    A. E. DePrince III, E. G. Hohenstein, U. Bozkaya, A. Yu. Sokolov,
    R. Di Remigio, R. M. Richard, J. F. Gonthier, A. M. James,
    H. R. McAlexander, A. Kumar, M. Saitow, X. Wang, B. P. Pritchard,
    P. Verma, H. F. Schaefer III, K. Patkowski, R. A. King, E. F. Valeev,
    F. A. Evangelista, J. M. Turney, T. D. Crawford, and C. D. Sherrill,
    J. Chem. Theory Comput. 13(7) pp 3185--3197 (2017).
    (doi: 10.1021/acs.jctc.7b00174)


                         Additional Contributions by
    P. Kraus, H. Kruse, M. H. Lechner, M. C. Schieber, R. A. Shaw,
    A. Alenaizan, R. Galvelis, Z. L. Glick, S. Lehtola, and J. P. Misiewicz

    -----------------------------------------------------------------------


    Psi4 started on: Monday, 27 April 2020 06:30PM

    Process ID: 23719
    Host:       ds3
    PSIDATADIR: /theoryfs2/ds/metcalf/miniconda2/envs/tf2gpu/share/psi4
    Memory:     500.0 MiB
    Threads:    1
    
  ==> Input File <==

--------------------------------------------------------------------------
import numpy as np
set {scf_type pk
basis cc-pvdz
d_convergence 10
gdma_switch   0
gdma_limit    0
gdma_origin   [ 0.0,  0.0,  0.0 ]
}
molecule test {
    units Angstrom
    0 1
    --
    0 1
    C                3.141042083938035    -2.005809477176892    -1.114681343874136
    C                4.275042083938035    -1.945809477176891    -2.150681343874136
    O                2.663042083938035    -3.317809477176891    -0.868681343874136
    H                3.497042083938035    -1.585809477176892    -0.172681343874136
    H                2.313042083938035    -1.386809477176892    -1.464681343874136
    H                4.640042083938035    -0.916809477176892    -2.162681343874136
    H                2.222042083938035    -3.634809477176892    -1.679681343874136
    H                3.919292983938035    -2.206039477176891    -3.158511343874136
    H                5.111702283938035    -2.592549477176891    -1.847811343874136
    C                0.346042083938035     0.441190522823108    -0.150681343874136
    C                1.480042083938035     1.133190522823108     0.615318656125864
    C               -1.035957916061965     0.814190522823108     0.315318656125864
    C               -1.642957916061965     1.970190522823108    -0.161681343874136
    C               -1.740957916061965     0.000190522823108     1.199318656125864
    C               -2.915957916061965     2.319190522823109     0.264318656125864
    C               -3.020957916061965     0.355190522823108     1.620318656125864
    C               -3.608957916061965     1.511190522823108     1.148318656125864
    H                0.438042083938035     0.677190522823108    -1.211681343874136
    H                0.470042083938035    -0.638809477176892    -0.052681343874136
    H                2.413042083938035     0.773190522823108     0.180318656125864
    H               -1.123957916061965     2.606190522823108    -0.865681343874136
    H               -1.298957916061965    -0.917809477176891     1.560318656125864
    H               -3.373957916061965     3.226190522823108    -0.105681343874136
    H               -3.577957916061965    -0.285809477176892     2.282318656125864
    H               -4.606957916061964     1.776190522823109     1.466318656125864
    H                1.457338083938035     0.852410522823108     1.678638656125864
    H                1.478599083938035     2.223000522823109     0.465918656125864

}
e, wfn = energy('scf', return_wfn=True)
gdma(wfn)
dmavals = variable('DMA DISTRIBUTED MULTIPOLES')
charges = np.array(dmavals)
print(charges)
np.save('SSI-050SER-066PHE-1-dimer.npy', np.array(charges))--------------------------------------------------------------------------

*** tstart() called on ds3
*** at Mon Apr 27 18:30:59 2020

   => Loading Basis Set <=

    Name: CC-PVDZ
    Role: ORBITAL
    Keyword: BASIS
    atoms 1-2, 10-17 entry C          line   138 file /theoryfs2/ds/metcalf/miniconda2/envs/tf2gpu/share/psi4/basis/cc-pvdz.gbs 
    atoms 3          entry O          line   198 file /theoryfs2/ds/metcalf/miniconda2/envs/tf2gpu/share/psi4/basis/cc-pvdz.gbs 
    atoms 4-9, 18-27 entry H          line    22 file /theoryfs2/ds/metcalf/miniconda2/envs/tf2gpu/share/psi4/basis/cc-pvdz.gbs 


         ---------------------------------------------------------
                                   SCF
               by Justin Turney, Rob Parrish, Andy Simmonett
                          and Daniel G. A. Smith
                              RHF Reference
                        1 Threads,    500 MiB Core
         ---------------------------------------------------------

  ==> Geometry <==

    Molecular point group: c1
    Full point group: C1

    Geometry (in Angstrom), charge = 0, multiplicity = 1:

       Center              X                  Y                   Z               Mass       
    ------------   -----------------  -----------------  -----------------  -----------------
         C            3.141042083938    -2.005809477177    -1.114681343874    12.000000000000
         C            4.275042083938    -1.945809477177    -2.150681343874    12.000000000000
         O            2.663042083938    -3.317809477177    -0.868681343874    15.994914619570
         H            3.497042083938    -1.585809477177    -0.172681343874     1.007825032230
         H            2.313042083938    -1.386809477177    -1.464681343874     1.007825032230
         H            4.640042083938    -0.916809477177    -2.162681343874     1.007825032230
         H            2.222042083938    -3.634809477177    -1.679681343874     1.007825032230
         H            3.919292983938    -2.206039477177    -3.158511343874     1.007825032230
         H            5.111702283938    -2.592549477177    -1.847811343874     1.007825032230
         C            0.346042083938     0.441190522823    -0.150681343874    12.000000000000
         C            1.480042083938     1.133190522823     0.615318656126    12.000000000000
         C           -1.035957916062     0.814190522823     0.315318656126    12.000000000000
         C           -1.642957916062     1.970190522823    -0.161681343874    12.000000000000
         C           -1.740957916062     0.000190522823     1.199318656126    12.000000000000
         C           -2.915957916062     2.319190522823     0.264318656126    12.000000000000
         C           -3.020957916062     0.355190522823     1.620318656126    12.000000000000
         C           -3.608957916062     1.511190522823     1.148318656126    12.000000000000
         H            0.438042083938     0.677190522823    -1.211681343874     1.007825032230
         H            0.470042083938    -0.638809477177    -0.052681343874     1.007825032230
         H            2.413042083938     0.773190522823     0.180318656126     1.007825032230
         H           -1.123957916062     2.606190522823    -0.865681343874     1.007825032230
         H           -1.298957916062    -0.917809477177     1.560318656126     1.007825032230
         H           -3.373957916062     3.226190522823    -0.105681343874     1.007825032230
         H           -3.577957916062    -0.285809477177     2.282318656126     1.007825032230
         H           -4.606957916062     1.776190522823     1.466318656126     1.007825032230
         H            1.457338083938     0.852410522823     1.678638656126     1.007825032230
         H            1.478599083938     2.223000522823     0.465918656126     1.007825032230

  Running in c1 symmetry.

  Rotational constants: A =      0.07765  B =      0.01056  C =      0.00987 [cm^-1]
  Rotational constants: A =   2327.80574  B =    316.58296  C =    295.76718 [MHz]
  Nuclear repulsion =  554.765993652106772

  Charge       = 0
  Multiplicity = 1
  Electrons    = 84
  Nalpha       = 42
  Nbeta        = 42

  ==> Algorithm <==

  SCF Algorithm Type is PK.
  DIIS enabled.
  MOM disabled.
  Fractional occupation disabled.
  Guess Type is SAD.
  Energy threshold   = 1.00e-06
  Density threshold  = 1.00e-10
  Integral threshold = 0.00e+00

  ==> Primary Basis <==

  Basis Set: CC-PVDZ
    Blend: CC-PVDZ
    Number of shells: 114
    Number of basis function: 234
    Number of Cartesian functions: 245
    Spherical Harmonics?: true
    Max angular momentum: 2

  ==> Pre-Iterations <==

   -------------------------------------------------------
    Irrep   Nso     Nmo     Nalpha   Nbeta   Ndocc  Nsocc
   -------------------------------------------------------
     A        234     234       0       0       0       0
   -------------------------------------------------------
    Total     234     234      42      42      42       0
   -------------------------------------------------------

  ==> Integral Setup <==

  Using integral reordering PK algorithm.
  Sizing the integral batches needed.
  Building batch lookup table.
   Calculation information:
      Number of atoms:                  27
      Number of AO shells:             114
      Number of primitives:            322
      Number of atomic orbitals:       245
      Number of basis functions:       234

      Integral cutoff                 1.00e-12
      Number of threads:                 1

	Batch   1 pq = [       0,    9405] index = [             0,44231715] size =     44231715
	Batch   2 pq = [    9405,   13301] index = [      44231715,88464951] size =     44233236
	Batch   3 pq = [   13301,   16290] index = [      88464951,132690195] size =     44225244
	Batch   4 pq = [   16290,   18810] index = [     132690195,176917455] size =     44227260
	Batch   5 pq = [   18810,   21030] index = [     176917455,221140965] size =     44223510
	Batch   6 pq = [   21030,   23037] index = [     221140965,265363203] size =     44222238
	Batch   7 pq = [   23037,   24883] index = [     265363203,309594286] size =     44231083
	Batch   8 pq = [   24883,   26601] index = [     309594286,353819901] size =     44225615
	Batch   9 pq = [   26601,   27495] index = [     353819901,378001260] size =     24181359
  Task number: 35
  Buffer size: 11059200
  Buffer per thread: 2
  We computed 16831153 shell quartets total.
  Whereas there are 21487290 unique shell quartets.

  ==> DiskJK: Disk-Based J/K Matrices <==

    J tasked:                  Yes
    K tasked:                  Yes
    wK tasked:                  No
    Memory [MiB]:              375
    Schwarz Cutoff:          1E-12

    OpenMP threads:              1

  Minimum eigenvalue in the overlap matrix is 3.0296151701E-04.
  Using Symmetric Orthogonalization.

  SCF Guess: Superposition of Atomic Densities via on-the-fly atomic UHF.

  ==> Iterations <==

                        Total Energy        Delta E     RMS |[F,P]|

   @RHF iter SAD:  -461.61470722324140   -4.61615e+02   0.00000e+00 
   @RHF iter   1:  -462.61182473505829   -9.97118e-01   2.77198e-03 DIIS
   @RHF iter   2:  -462.84344962294352   -2.31625e-01   1.23392e-03 DIIS
   @RHF iter   3:  -462.88272864069256   -3.92790e-02   2.67994e-04 DIIS
   @RHF iter   4:  -462.88589960566105   -3.17096e-03   8.15884e-05 DIIS
   @RHF iter   5:  -462.88609806737333   -1.98462e-04   1.79458e-05 DIIS
   @RHF iter   6:  -462.88611123221614   -1.31648e-05   4.61910e-06 DIIS
   @RHF iter   7:  -462.88611225426587   -1.02205e-06   1.98563e-06 DIIS
   @RHF iter   8:  -462.88611241321763   -1.58952e-07   5.11603e-07 DIIS
   @RHF iter   9:  -462.88611243604680   -2.28292e-08   2.07932e-07 DIIS
   @RHF iter  10:  -462.88611244077589   -4.72909e-09   9.84824e-08 DIIS
   @RHF iter  11:  -462.88611244219555   -1.41966e-09   3.87625e-08 DIIS
   @RHF iter  12:  -462.88611244244964   -2.54090e-10   1.47240e-08 DIIS
   @RHF iter  13:  -462.88611244247653   -2.68869e-11   5.15383e-09 DIIS
   @RHF iter  14:  -462.88611244247835   -1.81899e-12   1.37165e-09 DIIS
   @RHF iter  15:  -462.88611244247943   -1.08002e-12   5.54389e-10 DIIS
   @RHF iter  16:  -462.88611244248125   -1.81899e-12   2.13946e-10 DIIS
   @RHF iter  17:  -462.88611244248034    9.09495e-13   9.22542e-11 DIIS
  Energy and wave function converged.


  ==> Post-Iterations <==

    Orbital Energies [Eh]
    ---------------------

    Doubly Occupied:                                                      

       1A    -20.551514     2A    -11.278057     3A    -11.236230  
       4A    -11.232674     5A    -11.232338     6A    -11.230068  
       7A    -11.229338     8A    -11.228617     9A    -11.227724  
      10A    -11.226614    11A    -11.225219    12A     -1.350857  
      13A     -1.155610    14A     -1.063821    15A     -1.011340  
      16A     -1.008558    17A     -0.983626    18A     -0.862729  
      19A     -0.843020    20A     -0.825500    21A     -0.785008  
      22A     -0.691825    23A     -0.682863    24A     -0.641125  
      25A     -0.632867    26A     -0.622193    27A     -0.597144  
      28A     -0.591279    29A     -0.586201    30A     -0.577013  
      31A     -0.544208    32A     -0.541676    33A     -0.523787  
      34A     -0.518167    35A     -0.500588    36A     -0.483520  
      37A     -0.477861    38A     -0.476883    39A     -0.466005  
      40A     -0.433582    41A     -0.331418    42A     -0.322484  

    Virtual:                                                              

      43A      0.137824    44A      0.140822    45A      0.171612  
      46A      0.184038    47A      0.195018    48A      0.207772  
      49A      0.211218    50A      0.229979    51A      0.235428  
      52A      0.244444    53A      0.253496    54A      0.256682  
      55A      0.266977    56A      0.276293    57A      0.296876  
      58A      0.299782    59A      0.310960    60A      0.314048  
      61A      0.347761    62A      0.393809    63A      0.398403  
      64A      0.421862    65A      0.434948    66A      0.455408  
      67A      0.479777    68A      0.488549    69A      0.497964  
      70A      0.568895    71A      0.587180    72A      0.599271  
      73A      0.611485    74A      0.625701    75A      0.643295  
      76A      0.646755    77A      0.680266    78A      0.693840  
      79A      0.698188    80A      0.716986    81A      0.734127  
      82A      0.737411    83A      0.743012    84A      0.747997  
      85A      0.752142    86A      0.757447    87A      0.771822  
      88A      0.775872    89A      0.793037    90A      0.817564  
      91A      0.834317    92A      0.845381    93A      0.848566  
      94A      0.862552    95A      0.871470    96A      0.876282  
      97A      0.885070    98A      0.886873    99A      0.892576  
     100A      0.895046   101A      0.905081   102A      0.909602  
     103A      0.917928   104A      0.926174   105A      0.938248  
     106A      0.942373   107A      0.975092   108A      0.975746  
     109A      0.985253   110A      0.989854   111A      1.004524  
     112A      1.044067   113A      1.084777   114A      1.121850  
     115A      1.127667   116A      1.138066   117A      1.141980  
     118A      1.150987   119A      1.161467   120A      1.181115  
     121A      1.185292   122A      1.229547   123A      1.242129  
     124A      1.249104   125A      1.258674   126A      1.270444  
     127A      1.293362   128A      1.306047   129A      1.314836  
     130A      1.327581   131A      1.336738   132A      1.373960  
     133A      1.416198   134A      1.424469   135A      1.437019  
     136A      1.467861   137A      1.512223   138A      1.525007  
     139A      1.536902   140A      1.603699   141A      1.606645  
     142A      1.612036   143A      1.641811   144A      1.674343  
     145A      1.684685   146A      1.696136   147A      1.719981  
     148A      1.736239   149A      1.755394   150A      1.769625  
     151A      1.774841   152A      1.839626   153A      1.854187  
     154A      1.864366   155A      1.865738   156A      1.872778  
     157A      1.882472   158A      1.887725   159A      1.895640  
     160A      1.906103   161A      1.909505   162A      1.915574  
     163A      1.931290   164A      1.934173   165A      1.943395  
     166A      1.949181   167A      1.957586   168A      1.968586  
     169A      1.970096   170A      1.976447   171A      1.983029  
     172A      1.987690   173A      1.999848   174A      2.015782  
     175A      2.031493   176A      2.060342   177A      2.062146  
     178A      2.087245   179A      2.095044   180A      2.110282  
     181A      2.144885   182A      2.155259   183A      2.159036  
     184A      2.171625   185A      2.175014   186A      2.176690  
     187A      2.202802   188A      2.241873   189A      2.254327  
     190A      2.275539   191A      2.279375   192A      2.296419  
     193A      2.307028   194A      2.322797   195A      2.325131  
     196A      2.373748   197A      2.394136   198A      2.401932  
     199A      2.457674   200A      2.464461   201A      2.484727  
     202A      2.495238   203A      2.525915   204A      2.533117  
     205A      2.542021   206A      2.548019   207A      2.585354  
     208A      2.650594   209A      2.746680   210A      2.748864  
     211A      2.766851   212A      2.776135   213A      2.778633  
     214A      2.793280   215A      2.809158   216A      2.812841  
     217A      2.847319   218A      2.862975   219A      2.882235  
     220A      2.916066   221A      2.934398   222A      2.969079  
     223A      3.000311   224A      3.028932   225A      3.063924  
     226A      3.194283   227A      3.213176   228A      3.313611  
     229A      3.316616   230A      3.395484   231A      3.456718  
     232A      3.642811   233A      3.989129   234A      4.082552  

    Final Occupation by Irrep:
              A 
    DOCC [    42 ]

  @RHF Final Energy:  -462.88611244248034

   => Energetics <=

    Nuclear Repulsion Energy =            554.7659936521067721
    One-Electron Energy =               -1727.2419128861886293
    Two-Electron Energy =                 709.5898067916015179
    Total Energy =                       -462.8861124424803393

Computation Completed


Properties will be evaluated at   0.000000,   0.000000,   0.000000 [a0]

Properties computed using the SCF density matrix

  Nuclear Dipole Moment: [e a0]
     X:    13.1172      Y:    -1.9198      Z:    -4.7740

  Electronic Dipole Moment: [e a0]
     X:   -13.0648      Y:     2.2117      Z:     4.1573

  Dipole Moment: [e a0]
     X:     0.0523      Y:     0.2918      Z:    -0.6166     Total:     0.6842

  Dipole Moment: [D]
     X:     0.1330      Y:     0.7417      Z:    -1.5673     Total:     1.7390


*** tstop() called on ds3 at Mon Apr 27 18:33:42 2020
Module time:
	user time   =     117.27 seconds =       1.95 minutes
	system time =      52.40 seconds =       0.87 minutes
	total time  =        163 seconds =       2.72 minutes
Total time:
	user time   =     117.27 seconds =       1.95 minutes
	system time =      52.40 seconds =       0.87 minutes
	total time  =        163 seconds =       2.72 minutes
                                     G D M A

                                 by Anthony Stone

                           version 2.2.06, 22 June 2011

               Distributed Multipoles from Gaussian wavefunctions


Starting at 18:33:42 on 27 Apr 2020 


Using SCF density matrix from file ./SSI/SSI-050SER-066PHE-1-dimer.test.23719.fchk


                         Distributed Multipole Analysis

Standard DMA

Positions and radii in angstrom
Multipole moments in atomic units, ea_0^k for rank k

C          x =  3.141042  y = -2.005809  z = -1.114681 angstrom
           Maximum rank =  0   Radius =  0.650 angstrom
                   Q00  =   0.141101

C          x =  4.275042  y = -1.945809  z = -2.150681 angstrom
           Maximum rank =  0   Radius =  0.650 angstrom
                   Q00  =  -0.270311

O          x =  2.663042  y = -3.317809  z = -0.868681 angstrom
           Maximum rank =  0   Radius =  0.650 angstrom
                   Q00  =  -0.625424

H          x =  3.497042  y = -1.585809  z = -0.172681 angstrom
           Maximum rank =  0   Radius =  0.325 angstrom
                   Q00  =   0.084650

H          x =  2.313042  y = -1.386809  z = -1.464681 angstrom
           Maximum rank =  0   Radius =  0.325 angstrom
                   Q00  =   0.027728

H          x =  4.640042  y = -0.916809  z = -2.162681 angstrom
           Maximum rank =  0   Radius =  0.325 angstrom
                   Q00  =   0.083109

H          x =  2.222042  y = -3.634809  z = -1.679681 angstrom
           Maximum rank =  0   Radius =  0.325 angstrom
                   Q00  =   0.383305

H          x =  3.919293  y = -2.206039  z = -3.158511 angstrom
           Maximum rank =  0   Radius =  0.325 angstrom
                   Q00  =   0.079788

H          x =  5.111702  y = -2.592549  z = -1.847811 angstrom
           Maximum rank =  0   Radius =  0.325 angstrom
                   Q00  =   0.094138

C          x =  0.346042  y =  0.441191  z = -0.150681 angstrom
           Maximum rank =  0   Radius =  0.650 angstrom
                   Q00  =  -0.024203

C          x =  1.480042  y =  1.133191  z =  0.615319 angstrom
           Maximum rank =  0   Radius =  0.650 angstrom
                   Q00  =  -0.249986

C          x = -1.035958  y =  0.814191  z =  0.315319 angstrom
           Maximum rank =  0   Radius =  0.650 angstrom
                   Q00  =  -0.095586

C          x = -1.642958  y =  1.970191  z = -0.161681 angstrom
           Maximum rank =  0   Radius =  0.650 angstrom
                   Q00  =  -0.097490

C          x = -1.740958  y =  0.000191  z =  1.199319 angstrom
           Maximum rank =  0   Radius =  0.650 angstrom
                   Q00  =  -0.027068

C          x = -2.915958  y =  2.319191  z =  0.264319 angstrom
           Maximum rank =  0   Radius =  0.650 angstrom
                   Q00  =  -0.022267

C          x = -3.020958  y =  0.355191  z =  1.620319 angstrom
           Maximum rank =  0   Radius =  0.650 angstrom
                   Q00  =  -0.077678

C          x = -3.608958  y =  1.511191  z =  1.148319 angstrom
           Maximum rank =  0   Radius =  0.650 angstrom
                   Q00  =  -0.077565

H          x =  0.438042  y =  0.677191  z = -1.211681 angstrom
           Maximum rank =  0   Radius =  0.325 angstrom
                   Q00  =   0.062470

H          x =  0.470042  y = -0.638809  z = -0.052681 angstrom
           Maximum rank =  0   Radius =  0.325 angstrom
                   Q00  =   0.065533

H          x =  2.413042  y =  0.773191  z =  0.180319 angstrom
           Maximum rank =  0   Radius =  0.325 angstrom
                   Q00  =   0.076188

H          x = -1.123958  y =  2.606191  z = -0.865681 angstrom
           Maximum rank =  0   Radius =  0.325 angstrom
                   Q00  =   0.052769

H          x = -1.298958  y = -0.917809  z =  1.560319 angstrom
           Maximum rank =  0   Radius =  0.325 angstrom
                   Q00  =   0.058105

H          x = -3.373958  y =  3.226191  z = -0.105681 angstrom
           Maximum rank =  0   Radius =  0.325 angstrom
                   Q00  =   0.061553

H          x = -3.577958  y = -0.285809  z =  2.282319 angstrom
           Maximum rank =  0   Radius =  0.325 angstrom
                   Q00  =   0.063780

H          x = -4.606958  y =  1.776191  z =  1.466319 angstrom
           Maximum rank =  0   Radius =  0.325 angstrom
                   Q00  =   0.059529

H          x =  1.457338  y =  0.852411  z =  1.678639 angstrom
           Maximum rank =  0   Radius =  0.325 angstrom
                   Q00  =   0.089168

H          x =  1.478599  y =  2.223001  z =  0.465919 angstrom
           Maximum rank =  0   Radius =  0.325 angstrom
                   Q00  =   0.084663

Total multipoles referred to origin at
           x =   0.000000,  y =    0.000000,  z =    0.000000 angstrom
                   Q00  =  -0.000000

Finished at 18:33:42 on 27 Apr 2020 

  DMA results are available in the Python driver through the
	  variable('DMA DISTRIBUTED MULTIPOLES')
  and
	  variable('DMA TOTAL MULTIPOLES')
  commands.


    Psi4 stopped on: Monday, 27 April 2020 06:33PM
    Psi4 wall time for execution: 0:02:43.18

*** Psi4 exiting successfully. Buy a developer a beer!
