
    -----------------------------------------------------------------------
          Psi4: An Open-Source Ab Initio Electronic Structure Package
                               Psi4 1.3.2 release

                         Git: Rev {HEAD} ecbda83 


    R. M. Parrish, L. A. Burns, D. G. A. Smith, A. C. Simmonett,
    A. E. DePrince III, E. G. Hohenstein, U. Bozkaya, A. Yu. Sokolov,
    R. Di Remigio, R. M. Richard, J. F. Gonthier, A. M. James,
    H. R. McAlexander, A. Kumar, M. Saitow, X. Wang, B. P. Pritchard,
    P. Verma, H. F. Schaefer III, K. Patkowski, R. A. King, E. F. Valeev,
    F. A. Evangelista, J. M. Turney, T. D. Crawford, and C. D. Sherrill,
    J. Chem. Theory Comput. 13(7) pp 3185--3197 (2017).
    (doi: 10.1021/acs.jctc.7b00174)


                         Additional Contributions by
    P. Kraus, H. Kruse, M. H. Lechner, M. C. Schieber, R. A. Shaw,
    A. Alenaizan, R. Galvelis, Z. L. Glick, S. Lehtola, and J. P. Misiewicz

    -----------------------------------------------------------------------


    Psi4 started on: Tuesday, 28 April 2020 03:07AM

    Process ID: 16941
    Host:       ds3
    PSIDATADIR: /theoryfs2/ds/metcalf/miniconda2/envs/tf2gpu/share/psi4
    Memory:     500.0 MiB
    Threads:    1
    
  ==> Input File <==

--------------------------------------------------------------------------
import numpy as np
set {scf_type pk
basis cc-pvdz
d_convergence 10
gdma_switch   0
gdma_limit    0
gdma_origin   [ 0.0,  0.0,  0.0 ]
}
molecule test {
    units Angstrom
    0 1
    --
    0 1
    C               -1.091179122679591     1.573627343173317    -0.316766869661652
    C               -2.035179122679590     2.726627343173317    -0.031766869661652
    C               -1.978179122679590     0.623627343173317    -1.093766869661652
    H               -0.786179122679590     1.090627343173317     0.609233130338348
    H               -0.225179122679590     1.891627343173317    -0.898766869661652
    H               -1.682179122679591     3.281627343173317     0.826233130338348
    H               -2.120179122679590     3.374627343173317    -0.904766869661652
    H               -1.571179122679590    -0.387372656826683    -1.112766869661652
    H               -2.114179122679591     0.995627343173317    -2.110766869661652
    H               -2.993009122679590     2.219231243173317     0.155602130338348
    H               -2.931599122679590     0.676794743173317    -0.547723869661652
    C                1.376820877320410    -1.198372656826683     0.309233130338348
    C                2.053820877320410    -1.276372656826683     1.664233130338348
    C                1.709820877320410    -2.417372656826684    -0.534766869661652
    H                0.299820877320410    -1.119372656826683     0.440233130338348
    H                1.721820877320410    -0.313372656826683    -0.224766869661652
    H                3.125820877320410    -1.439372656826683     1.542233130338348
    H                1.617820877320410    -2.122372656826683     2.179233130338349
    H                2.782820877320410    -2.444372656826683    -0.723766869661652
    H                1.415820877320410    -3.322372656826683     0.003233130338348
    H                1.869930877320410    -0.395864656826683     2.297393130338348
    H                1.162070877320410    -2.363898656826684    -1.487189869661652

}
e, wfn = energy('scf', return_wfn=True)
gdma(wfn)
dmavals = variable('DMA DISTRIBUTED MULTIPOLES')
charges = np.array(dmavals)
print(charges)
np.save('SSI-092PRO-133LYS-1-dimer.npy', np.array(charges))--------------------------------------------------------------------------

*** tstart() called on ds3
*** at Tue Apr 28 03:07:04 2020

   => Loading Basis Set <=

    Name: CC-PVDZ
    Role: ORBITAL
    Keyword: BASIS
    atoms 1-3, 12-14  entry C          line   138 file /theoryfs2/ds/metcalf/miniconda2/envs/tf2gpu/share/psi4/basis/cc-pvdz.gbs 
    atoms 4-11, 15-22 entry H          line    22 file /theoryfs2/ds/metcalf/miniconda2/envs/tf2gpu/share/psi4/basis/cc-pvdz.gbs 


         ---------------------------------------------------------
                                   SCF
               by Justin Turney, Rob Parrish, Andy Simmonett
                          and Daniel G. A. Smith
                              RHF Reference
                        1 Threads,    500 MiB Core
         ---------------------------------------------------------

  ==> Geometry <==

    Molecular point group: c1
    Full point group: C1

    Geometry (in Angstrom), charge = 0, multiplicity = 1:

       Center              X                  Y                   Z               Mass       
    ------------   -----------------  -----------------  -----------------  -----------------
         C           -1.091179122680     1.573627343173    -0.316766869662    12.000000000000
         C           -2.035179122680     2.726627343173    -0.031766869662    12.000000000000
         C           -1.978179122680     0.623627343173    -1.093766869662    12.000000000000
         H           -0.786179122680     1.090627343173     0.609233130338     1.007825032230
         H           -0.225179122680     1.891627343173    -0.898766869662     1.007825032230
         H           -1.682179122680     3.281627343173     0.826233130338     1.007825032230
         H           -2.120179122680     3.374627343173    -0.904766869662     1.007825032230
         H           -1.571179122680    -0.387372656827    -1.112766869662     1.007825032230
         H           -2.114179122680     0.995627343173    -2.110766869662     1.007825032230
         H           -2.993009122680     2.219231243173     0.155602130338     1.007825032230
         H           -2.931599122680     0.676794743173    -0.547723869662     1.007825032230
         C            1.376820877320    -1.198372656827     0.309233130338    12.000000000000
         C            2.053820877320    -1.276372656827     1.664233130338    12.000000000000
         C            1.709820877320    -2.417372656827    -0.534766869662    12.000000000000
         H            0.299820877320    -1.119372656827     0.440233130338     1.007825032230
         H            1.721820877320    -0.313372656827    -0.224766869662     1.007825032230
         H            3.125820877320    -1.439372656827     1.542233130338     1.007825032230
         H            1.617820877320    -2.122372656827     2.179233130338     1.007825032230
         H            2.782820877320    -2.444372656827    -0.723766869662     1.007825032230
         H            1.415820877320    -3.322372656827     0.003233130338     1.007825032230
         H            1.869930877320    -0.395864656827     2.297393130338     1.007825032230
         H            1.162070877320    -2.363898656827    -1.487189869662     1.007825032230

  Running in c1 symmetry.

  Rotational constants: A =      0.16740  B =      0.02963  C =      0.02631 [cm^-1]
  Rotational constants: A =   5018.52230  B =    888.38432  C =    788.61917 [MHz]
  Nuclear repulsion =  240.260589406192878

  Charge       = 0
  Multiplicity = 1
  Electrons    = 52
  Nalpha       = 26
  Nbeta        = 26

  ==> Algorithm <==

  SCF Algorithm Type is PK.
  DIIS enabled.
  MOM disabled.
  Fractional occupation disabled.
  Guess Type is SAD.
  Energy threshold   = 1.00e-06
  Density threshold  = 1.00e-10
  Integral threshold = 0.00e+00

  ==> Primary Basis <==

  Basis Set: CC-PVDZ
    Blend: CC-PVDZ
    Number of shells: 84
    Number of basis function: 164
    Number of Cartesian functions: 170
    Spherical Harmonics?: true
    Max angular momentum: 2

  ==> Pre-Iterations <==

   -------------------------------------------------------
    Irrep   Nso     Nmo     Nalpha   Nbeta   Ndocc  Nsocc
   -------------------------------------------------------
     A        164     164       0       0       0       0
   -------------------------------------------------------
    Total     164     164      26      26      26       0
   -------------------------------------------------------

  ==> Integral Setup <==

  Using integral reordering PK algorithm.
  Sizing the integral batches needed.
  Building batch lookup table.
   Calculation information:
      Number of atoms:                  22
      Number of AO shells:              84
      Number of primitives:            212
      Number of atomic orbitals:       170
      Number of basis functions:       164

      Integral cutoff                 1.00e-12
      Number of threads:                 1

	Batch   1 pq = [       0,    9405] index = [             0,44231715] size =     44231715
	Batch   2 pq = [    9405,   13530] index = [      44231715,91537215] size =     47305500
  Task number: 9
  Buffer size: 11059200
  Buffer per thread: 2
  We computed 5344458 shell quartets total.
  Whereas there are 6374235 unique shell quartets.

  ==> DiskJK: Disk-Based J/K Matrices <==

    J tasked:                  Yes
    K tasked:                  Yes
    wK tasked:                  No
    Memory [MiB]:              375
    Schwarz Cutoff:          1E-12

    OpenMP threads:              1

  Minimum eigenvalue in the overlap matrix is 4.8030147392E-03.
  Using Symmetric Orthogonalization.

  SCF Guess: Superposition of Atomic Densities via on-the-fly atomic UHF.

  ==> Iterations <==

                        Total Energy        Delta E     RMS |[F,P]|

   @RHF iter SAD:  -235.59141805663157   -2.35591e+02   0.00000e+00 
   @RHF iter   1:  -236.29235074064201   -7.00933e-01   3.57232e-03 DIIS
   @RHF iter   2:  -236.48339497068775   -1.91044e-01   1.57726e-03 DIIS
   @RHF iter   3:  -236.51909046457098   -3.56955e-02   3.10462e-04 DIIS
   @RHF iter   4:  -236.52173164935692   -2.64118e-03   4.83610e-05 DIIS
   @RHF iter   5:  -236.52178268917993   -5.10398e-05   1.36137e-05 DIIS
   @RHF iter   6:  -236.52178685158765   -4.16241e-06   2.46598e-06 DIIS
   @RHF iter   7:  -236.52178699831546   -1.46728e-07   4.64652e-07 DIIS
   @RHF iter   8:  -236.52178700506533   -6.74987e-09   8.89274e-08 DIIS
   @RHF iter   9:  -236.52178700532596   -2.60627e-10   2.82023e-08 DIIS
   @RHF iter  10:  -236.52178700534694   -2.09752e-11   7.37946e-09 DIIS
   @RHF iter  11:  -236.52178700534853   -1.59162e-12   1.32640e-09 DIIS
   @RHF iter  12:  -236.52178700534813    3.97904e-13   3.81013e-10 DIIS
   @RHF iter  13:  -236.52178700534844   -3.12639e-13   7.40124e-11 DIIS
  Energy and wave function converged.


  ==> Post-Iterations <==

    Orbital Energies [Eh]
    ---------------------

    Doubly Occupied:                                                      

       1A    -11.216949     2A    -11.215835     3A    -11.214346  
       4A    -11.214259     5A    -11.212357     6A    -11.211492  
       7A     -1.069690     8A     -1.058948     9A     -0.923662  
      10A     -0.912992    11A     -0.800767    12A     -0.794645  
      13A     -0.640706    14A     -0.631334    15A     -0.613565  
      16A     -0.597580    17A     -0.546605    18A     -0.542629  
      19A     -0.531654    20A     -0.509506    21A     -0.483959  
      22A     -0.477070    23A     -0.471627    24A     -0.470228  
      25A     -0.465623    26A     -0.456426  

    Virtual:                                                              

      27A      0.170442    28A      0.194052    29A      0.207622  
      30A      0.216334    31A      0.219539    32A      0.238960  
      33A      0.242112    34A      0.259267    35A      0.265280  
      36A      0.282582    37A      0.290588    38A      0.298904  
      39A      0.312109    40A      0.326211    41A      0.332203  
      42A      0.356207    43A      0.364533    44A      0.391624  
      45A      0.424841    46A      0.430739    47A      0.565211  
      48A      0.577122    49A      0.586842    50A      0.601641  
      51A      0.610329    52A      0.615145    53A      0.621686  
      54A      0.643451    55A      0.658866    56A      0.742723  
      57A      0.783837    58A      0.799169    59A      0.814490  
      60A      0.832204    61A      0.843624    62A      0.860118  
      63A      0.879317    64A      0.882988    65A      0.889782  
      66A      0.894219    67A      0.896537    68A      0.899819  
      69A      0.906039    70A      0.908830    71A      0.911754  
      72A      0.915686    73A      0.924865    74A      0.940777  
      75A      0.947862    76A      0.959558    77A      0.967291  
      78A      0.983117    79A      1.003103    80A      1.009669  
      81A      1.103994    82A      1.130741    83A      1.138878  
      84A      1.148428    85A      1.194287    86A      1.224813  
      87A      1.377870    88A      1.411714    89A      1.448593  
      90A      1.478892    91A      1.486190    92A      1.493315  
      93A      1.557340    94A      1.593485    95A      1.623119  
      96A      1.628155    97A      1.650777    98A      1.679753  
      99A      1.691333   100A      1.706606   101A      1.739854  
     102A      1.755014   103A      1.800352   104A      1.852340  
     105A      1.864659   106A      1.875012   107A      1.878379  
     108A      1.899135   109A      1.906699   110A      1.913225  
     111A      1.925430   112A      1.933689   113A      1.939923  
     114A      1.950812   115A      1.969971   116A      1.971159  
     117A      1.977834   118A      1.990502   119A      1.994760  
     120A      2.003726   121A      2.018043   122A      2.031400  
     123A      2.042330   124A      2.045501   125A      2.077256  
     126A      2.128263   127A      2.139467   128A      2.153943  
     129A      2.157785   130A      2.166095   131A      2.241415  
     132A      2.293511   133A      2.308196   134A      2.318699  
     135A      2.327293   136A      2.341906   137A      2.356336  
     138A      2.440915   139A      2.470423   140A      2.501546  
     141A      2.518846   142A      2.540709   143A      2.557485  
     144A      2.584679   145A      2.621036   146A      2.631342  
     147A      2.641776   148A      2.698200   149A      2.755505  
     150A      2.759405   151A      2.770298   152A      2.787828  
     153A      2.800182   154A      2.804574   155A      2.823005  
     156A      2.837452   157A      2.906451   158A      2.913029  
     159A      2.941074   160A      2.961401   161A      2.972375  
     162A      2.974006   163A      3.052806   164A      3.086997  

    Final Occupation by Irrep:
              A 
    DOCC [    26 ]

  @RHF Final Energy:  -236.52178700534844

   => Energetics <=

    Nuclear Repulsion Energy =            240.2605894061928780
    One-Electron Energy =                -792.9958463180860235
    Two-Electron Energy =                 316.2134699065447876
    Total Energy =                       -236.5217870053484148

Computation Completed


Properties will be evaluated at   0.000000,   0.000000,   0.000000 [a0]

Properties computed using the SCF density matrix

  Nuclear Dipole Moment: [e a0]
     X:    -0.4010      Y:    -0.3546      Z:     0.0402

  Electronic Dipole Moment: [e a0]
     X:     0.4256      Y:     0.3762      Z:    -0.0430

  Dipole Moment: [e a0]
     X:     0.0246      Y:     0.0217      Z:    -0.0028     Total:     0.0329

  Dipole Moment: [D]
     X:     0.0626      Y:     0.0550      Z:    -0.0072     Total:     0.0836


*** tstop() called on ds3 at Tue Apr 28 03:07:41 2020
Module time:
	user time   =      26.33 seconds =       0.44 minutes
	system time =      11.32 seconds =       0.19 minutes
	total time  =         37 seconds =       0.62 minutes
Total time:
	user time   =      26.33 seconds =       0.44 minutes
	system time =      11.32 seconds =       0.19 minutes
	total time  =         37 seconds =       0.62 minutes
                                     G D M A

                                 by Anthony Stone

                           version 2.2.06, 22 June 2011

               Distributed Multipoles from Gaussian wavefunctions


Starting at 3:7:41 on 28 Apr 2020   


Using SCF density matrix from file ./SSI/SSI-092PRO-133LYS-1-dimer.test.16941.fchk


                         Distributed Multipole Analysis

Standard DMA

Positions and radii in angstrom
Multipole moments in atomic units, ea_0^k for rank k

C          x = -1.091179  y =  1.573627  z = -0.316767 angstrom
           Maximum rank =  0   Radius =  0.650 angstrom
                   Q00  =  -0.091162

C          x = -2.035179  y =  2.726627  z = -0.031767 angstrom
           Maximum rank =  0   Radius =  0.650 angstrom
                   Q00  =  -0.226527

C          x = -1.978179  y =  0.623627  z = -1.093767 angstrom
           Maximum rank =  0   Radius =  0.650 angstrom
                   Q00  =  -0.215692

H          x = -0.786179  y =  1.090627  z =  0.609233 angstrom
           Maximum rank =  0   Radius =  0.325 angstrom
                   Q00  =   0.051480

H          x = -0.225179  y =  1.891627  z = -0.898767 angstrom
           Maximum rank =  0   Radius =  0.325 angstrom
                   Q00  =   0.057037

H          x = -1.682179  y =  3.281627  z =  0.826233 angstrom
           Maximum rank =  0   Radius =  0.325 angstrom
                   Q00  =   0.080713

H          x = -2.120179  y =  3.374627  z = -0.904767 angstrom
           Maximum rank =  0   Radius =  0.325 angstrom
                   Q00  =   0.079572

H          x = -1.571179  y = -0.387373  z = -1.112767 angstrom
           Maximum rank =  0   Radius =  0.325 angstrom
                   Q00  =   0.079443

H          x = -2.114179  y =  0.995627  z = -2.110767 angstrom
           Maximum rank =  0   Radius =  0.325 angstrom
                   Q00  =   0.076780

H          x = -2.993009  y =  2.219231  z =  0.155602 angstrom
           Maximum rank =  0   Radius =  0.325 angstrom
                   Q00  =   0.059662

H          x = -2.931599  y =  0.676795  z = -0.547724 angstrom
           Maximum rank =  0   Radius =  0.325 angstrom
                   Q00  =   0.048802

C          x =  1.376821  y = -1.198373  z =  0.309233 angstrom
           Maximum rank =  0   Radius =  0.650 angstrom
                   Q00  =  -0.080989

C          x =  2.053821  y = -1.276373  z =  1.664233 angstrom
           Maximum rank =  0   Radius =  0.650 angstrom
                   Q00  =  -0.236760

C          x =  1.709821  y = -2.417373  z = -0.534767 angstrom
           Maximum rank =  0   Radius =  0.650 angstrom
                   Q00  =  -0.239051

H          x =  0.299821  y = -1.119373  z =  0.440233 angstrom
           Maximum rank =  0   Radius =  0.325 angstrom
                   Q00  =   0.046377

H          x =  1.721821  y = -0.313373  z = -0.224767 angstrom
           Maximum rank =  0   Radius =  0.325 angstrom
                   Q00  =   0.045170

H          x =  3.125821  y = -1.439373  z =  1.542233 angstrom
           Maximum rank =  0   Radius =  0.325 angstrom
                   Q00  =   0.076360

H          x =  1.617821  y = -2.122373  z =  2.179233 angstrom
           Maximum rank =  0   Radius =  0.325 angstrom
                   Q00  =   0.072184

H          x =  2.782821  y = -2.444373  z = -0.723767 angstrom
           Maximum rank =  0   Radius =  0.325 angstrom
                   Q00  =   0.077935

H          x =  1.415821  y = -3.322373  z =  0.003233 angstrom
           Maximum rank =  0   Radius =  0.325 angstrom
                   Q00  =   0.073773

H          x =  1.869931  y = -0.395865  z =  2.297393 angstrom
           Maximum rank =  0   Radius =  0.325 angstrom
                   Q00  =   0.082916

H          x =  1.162071  y = -2.363899  z = -1.487190 angstrom
           Maximum rank =  0   Radius =  0.325 angstrom
                   Q00  =   0.081978

Total multipoles referred to origin at
           x =   0.000000,  y =    0.000000,  z =    0.000000 angstrom
                   Q00  =  -0.000000

Finished at 3:7:41 on 28 Apr 2020   

  DMA results are available in the Python driver through the
	  variable('DMA DISTRIBUTED MULTIPOLES')
  and
	  variable('DMA TOTAL MULTIPOLES')
  commands.


    Psi4 stopped on: Tuesday, 28 April 2020 03:07AM
    Psi4 wall time for execution: 0:00:36.91

*** Psi4 exiting successfully. Buy a developer a beer!
