
    -----------------------------------------------------------------------
          Psi4: An Open-Source Ab Initio Electronic Structure Package
                               Psi4 1.3.2 release

                         Git: Rev {HEAD} ecbda83 


    R. M. Parrish, L. A. Burns, D. G. A. Smith, A. C. Simmonett,
    A. E. DePrince III, E. G. Hohenstein, U. Bozkaya, A. Yu. Sokolov,
    R. Di Remigio, R. M. Richard, J. F. Gonthier, A. M. James,
    H. R. McAlexander, A. Kumar, M. Saitow, X. Wang, B. P. Pritchard,
    P. Verma, H. F. Schaefer III, K. Patkowski, R. A. King, E. F. Valeev,
    F. A. Evangelista, J. M. Turney, T. D. Crawford, and C. D. Sherrill,
    J. Chem. Theory Comput. 13(7) pp 3185--3197 (2017).
    (doi: 10.1021/acs.jctc.7b00174)


                         Additional Contributions by
    P. Kraus, H. Kruse, M. H. Lechner, M. C. Schieber, R. A. Shaw,
    A. Alenaizan, R. Galvelis, Z. L. Glick, S. Lehtola, and J. P. Misiewicz

    -----------------------------------------------------------------------


    Psi4 started on: Sunday, 26 April 2020 11:07PM

    Process ID: 24570
    Host:       ds3
    PSIDATADIR: /theoryfs2/ds/metcalf/miniconda2/envs/tf2gpu/share/psi4
    Memory:     500.0 MiB
    Threads:    1
    
  ==> Input File <==

--------------------------------------------------------------------------
import numpy as np
set {scf_type pk
basis cc-pvdz
d_convergence 10
gdma_switch   0
gdma_limit    0
gdma_origin   [ 0.0,  0.0,  0.0 ]
}
molecule test {
    units Angstrom
    1 1
    --
    1 1
    C               -1.579742163481299    -0.873599287282366     1.460746528110713
    C               -2.787742163481299    -1.806599287282366     1.610746528110713
    C               -0.264742163481299    -1.437599287282366     2.007746528110713
    H               -1.449742163481299    -0.696599287282366     0.404746528110713
    H               -1.792742163481299     0.100400712717634     1.905746528110713
    H               -3.046742163481299    -1.922599287282366     2.664746528110713
    H               -0.059742163481299    -2.415599287282366     1.570746528110713
    H                0.538257836518701    -0.765599287282366     1.711746528110713
    H               -2.593072163481299    -2.782949287282366     1.142946528110713
    H               -3.653922163481299    -1.398859287282366     1.069016528110713
    H               -0.236502163481299    -1.511469287282366     3.104896528110713
    C               -0.186742163481299    -0.008599287282366    -1.748253471889287
    C               -1.557742163481299     0.402400712717634    -2.273253471889287
    C                1.573257836518701     0.933400712717634    -0.284253471889287
    N                0.382257836518701     1.014400712717634    -0.860253471889287
    N                2.341257836518702    -0.117599287282366    -0.482253471889287
    N                1.997257836518701     1.906400712717634     0.496746528110713
    H               -0.252742163481299    -0.974599287282366    -1.245253471889287
    H                0.477257836518701    -0.124599287282366    -2.608253471889287
    H               -1.444742163481299     1.310400712717634    -2.867253471889287
    H               -2.225742163481299     0.613400712717634    -1.437253471889287
    H               -0.179742163481299     1.833400712717634    -0.660253471889287
    H                1.994257836518701    -0.934599287282366    -0.977253471889287
    H                3.248257836518702    -0.165599287282366    -0.044253471889287
    H                1.388257836518701     2.677400712717634     0.730746528110713
    H                2.882257836518701     1.828400712717634     0.974746528110713
    H               -1.991302163481299    -0.391859287282366    -2.898703471889287

}
e, wfn = energy('scf', return_wfn=True)
gdma(wfn)
dmavals = variable('DMA DISTRIBUTED MULTIPOLES')
charges = np.array(dmavals)
print(charges)
np.save('SSI-115GLN-118ARG-1-dimer.npy', np.array(charges))--------------------------------------------------------------------------

*** tstart() called on ds3
*** at Sun Apr 26 23:07:46 2020

   => Loading Basis Set <=

    Name: CC-PVDZ
    Role: ORBITAL
    Keyword: BASIS
    atoms 1-3, 12-14  entry C          line   138 file /theoryfs2/ds/metcalf/miniconda2/envs/tf2gpu/share/psi4/basis/cc-pvdz.gbs 
    atoms 4-11, 18-27 entry H          line    22 file /theoryfs2/ds/metcalf/miniconda2/envs/tf2gpu/share/psi4/basis/cc-pvdz.gbs 
    atoms 15-17       entry N          line   168 file /theoryfs2/ds/metcalf/miniconda2/envs/tf2gpu/share/psi4/basis/cc-pvdz.gbs 


         ---------------------------------------------------------
                                   SCF
               by Justin Turney, Rob Parrish, Andy Simmonett
                          and Daniel G. A. Smith
                              RHF Reference
                        1 Threads,    500 MiB Core
         ---------------------------------------------------------

  ==> Geometry <==

    Molecular point group: c1
    Full point group: C1

    Geometry (in Angstrom), charge = 1, multiplicity = 1:

       Center              X                  Y                   Z               Mass       
    ------------   -----------------  -----------------  -----------------  -----------------
         C           -1.579742163481    -0.873599287282     1.460746528111    12.000000000000
         C           -2.787742163481    -1.806599287282     1.610746528111    12.000000000000
         C           -0.264742163481    -1.437599287282     2.007746528111    12.000000000000
         H           -1.449742163481    -0.696599287282     0.404746528111     1.007825032230
         H           -1.792742163481     0.100400712718     1.905746528111     1.007825032230
         H           -3.046742163481    -1.922599287282     2.664746528111     1.007825032230
         H           -0.059742163481    -2.415599287282     1.570746528111     1.007825032230
         H            0.538257836519    -0.765599287282     1.711746528111     1.007825032230
         H           -2.593072163481    -2.782949287282     1.142946528111     1.007825032230
         H           -3.653922163481    -1.398859287282     1.069016528111     1.007825032230
         H           -0.236502163481    -1.511469287282     3.104896528111     1.007825032230
         C           -0.186742163481    -0.008599287282    -1.748253471889    12.000000000000
         C           -1.557742163481     0.402400712718    -2.273253471889    12.000000000000
         C            1.573257836519     0.933400712718    -0.284253471889    12.000000000000
         N            0.382257836519     1.014400712718    -0.860253471889    14.003074004430
         N            2.341257836519    -0.117599287282    -0.482253471889    14.003074004430
         N            1.997257836519     1.906400712718     0.496746528111    14.003074004430
         H           -0.252742163481    -0.974599287282    -1.245253471889     1.007825032230
         H            0.477257836519    -0.124599287282    -2.608253471889     1.007825032230
         H           -1.444742163481     1.310400712718    -2.867253471889     1.007825032230
         H           -2.225742163481     0.613400712718    -1.437253471889     1.007825032230
         H           -0.179742163481     1.833400712718    -0.660253471889     1.007825032230
         H            1.994257836519    -0.934599287282    -0.977253471889     1.007825032230
         H            3.248257836519    -0.165599287282    -0.044253471889     1.007825032230
         H            1.388257836519     2.677400712718     0.730746528111     1.007825032230
         H            2.882257836519     1.828400712718     0.974746528111     1.007825032230
         H           -1.991302163481    -0.391859287282    -2.898703471889     1.007825032230

  Running in c1 symmetry.

  Rotational constants: A =      0.05157  B =      0.02798  C =      0.02121 [cm^-1]
  Rotational constants: A =   1546.14385  B =    838.86922  C =    635.71672 [MHz]
  Nuclear repulsion =  491.299305433165046

  Charge       = 1
  Multiplicity = 1
  Electrons    = 74
  Nalpha       = 37
  Nbeta        = 37

  ==> Algorithm <==

  SCF Algorithm Type is PK.
  DIIS enabled.
  MOM disabled.
  Fractional occupation disabled.
  Guess Type is SAD.
  Energy threshold   = 1.00e-06
  Density threshold  = 1.00e-10
  Integral threshold = 0.00e+00

  ==> Primary Basis <==

  Basis Set: CC-PVDZ
    Blend: CC-PVDZ
    Number of shells: 108
    Number of basis function: 216
    Number of Cartesian functions: 225
    Spherical Harmonics?: true
    Max angular momentum: 2

  ==> Pre-Iterations <==

   -------------------------------------------------------
    Irrep   Nso     Nmo     Nalpha   Nbeta   Ndocc  Nsocc
   -------------------------------------------------------
     A        216     216       0       0       0       0
   -------------------------------------------------------
    Total     216     216      37      37      37       0
   -------------------------------------------------------

  ==> Integral Setup <==

  Using integral reordering PK algorithm.
  Sizing the integral batches needed.
  Building batch lookup table.
   Calculation information:
      Number of atoms:                  27
      Number of AO shells:             108
      Number of primitives:            288
      Number of atomic orbitals:       225
      Number of basis functions:       216

      Integral cutoff                 1.00e-12
      Number of threads:                 1

	Batch   1 pq = [       0,    9405] index = [             0,44231715] size =     44231715
	Batch   2 pq = [    9405,   13301] index = [      44231715,88464951] size =     44233236
	Batch   3 pq = [   13301,   16290] index = [      88464951,132690195] size =     44225244
	Batch   4 pq = [   16290,   18810] index = [     132690195,176917455] size =     44227260
	Batch   5 pq = [   18810,   21030] index = [     176917455,221140965] size =     44223510
	Batch   6 pq = [   21030,   23037] index = [     221140965,265363203] size =     44222238
	Batch   7 pq = [   23037,   23436] index = [     265363203,274634766] size =      9271563
  Task number: 25
  Buffer size: 11059200
  Buffer per thread: 2
  We computed 16751077 shell quartets total.
  Whereas there are 17325441 unique shell quartets.

  ==> DiskJK: Disk-Based J/K Matrices <==

    J tasked:                  Yes
    K tasked:                  Yes
    wK tasked:                  No
    Memory [MiB]:              375
    Schwarz Cutoff:          1E-12

    OpenMP threads:              1

  Minimum eigenvalue in the overlap matrix is 3.3136380688E-03.
  Using Symmetric Orthogonalization.

  SCF Guess: Superposition of Atomic Densities via on-the-fly atomic UHF.

  ==> Iterations <==

                        Total Energy        Delta E     RMS |[F,P]|

   @RHF iter SAD:  -400.16783679197545   -4.00168e+02   0.00000e+00 
   @RHF iter   1:  -400.62760545583899   -4.59769e-01   3.00613e-03 DIIS
   @RHF iter   2:  -400.85463604715096   -2.27031e-01   1.20511e-03 DIIS
   @RHF iter   3:  -400.88904261318095   -3.44066e-02   2.84539e-04 DIIS
   @RHF iter   4:  -400.89229238063245   -3.24977e-03   4.97585e-05 DIIS
   @RHF iter   5:  -400.89238508616427   -9.27055e-05   1.76254e-05 DIIS
   @RHF iter   6:  -400.89239700365226   -1.19175e-05   3.37723e-06 DIIS
   @RHF iter   7:  -400.89239767270846   -6.69056e-07   1.17127e-06 DIIS
   @RHF iter   8:  -400.89239772589633   -5.31879e-08   3.17097e-07 DIIS
   @RHF iter   9:  -400.89239773028220   -4.38587e-09   8.01298e-08 DIIS
   @RHF iter  10:  -400.89239773057392   -2.91720e-10   2.25795e-08 DIIS
   @RHF iter  11:  -400.89239773059194   -1.80194e-11   7.48665e-09 DIIS
   @RHF iter  12:  -400.89239773059592   -3.97904e-12   1.95437e-09 DIIS
   @RHF iter  13:  -400.89239773059410    1.81899e-12   6.30346e-10 DIIS
   @RHF iter  14:  -400.89239773059518   -1.08002e-12   2.61713e-10 DIIS
   @RHF iter  15:  -400.89239773059637   -1.19371e-12   5.40858e-11 DIIS
  Energy and wave function converged.


  ==> Post-Iterations <==

    Orbital Energies [Eh]
    ---------------------

    Doubly Occupied:                                                      

       1A    -15.785864     2A    -15.784956     3A    -15.779407  
       4A    -11.585509     5A    -11.433852     6A    -11.370390  
       7A    -11.331178     8A    -11.330581     9A    -11.313887  
      10A     -1.542598    11A     -1.399757    12A     -1.388166  
      13A     -1.186351    14A     -1.160027    15A     -1.051742  
      16A     -1.031545    17A     -1.015394    18A     -0.970101  
      19A     -0.931493    20A     -0.907932    21A     -0.854314  
      22A     -0.851664    23A     -0.829702    24A     -0.791025  
      25A     -0.766375    26A     -0.730478    27A     -0.700347  
      28A     -0.686525    29A     -0.663565    30A     -0.661113  
      31A     -0.653187    32A     -0.638753    33A     -0.614998  
      34A     -0.582699    35A     -0.577374    36A     -0.575791  
      37A     -0.572517  

    Virtual:                                                              

      38A     -0.008608    39A      0.025564    40A      0.028851  
      41A      0.038953    42A      0.058315    43A      0.068372  
      44A      0.085908    45A      0.112731    46A      0.117379  
      47A      0.124267    48A      0.137080    49A      0.139864  
      50A      0.146523    51A      0.152728    52A      0.173449  
      53A      0.179060    54A      0.193167    55A      0.202202  
      56A      0.207555    57A      0.236583    58A      0.262918  
      59A      0.269013    60A      0.309921    61A      0.319178  
      62A      0.347233    63A      0.354779    64A      0.442288  
      65A      0.457279    66A      0.472005    67A      0.475821  
      68A      0.494435    69A      0.504534    70A      0.509795  
      71A      0.528199    72A      0.539525    73A      0.552053  
      74A      0.561669    75A      0.575878    76A      0.591641  
      77A      0.645404    78A      0.668307    79A      0.678053  
      80A      0.685968    81A      0.706453    82A      0.717992  
      83A      0.734547    84A      0.741483    85A      0.747932  
      86A      0.750309    87A      0.768227    88A      0.771350  
      89A      0.777606    90A      0.780077    91A      0.794343  
      92A      0.801490    93A      0.801795    94A      0.815933  
      95A      0.820038    96A      0.831588    97A      0.837482  
      98A      0.847038    99A      0.852593   100A      0.861072  
     101A      0.887855   102A      0.909888   103A      0.925202  
     104A      0.948982   105A      0.967522   106A      0.972856  
     107A      1.013569   108A      1.028023   109A      1.030459  
     110A      1.052009   111A      1.113764   112A      1.116226  
     113A      1.132999   114A      1.182450   115A      1.203909  
     116A      1.210395   117A      1.234791   118A      1.263150  
     119A      1.285526   120A      1.319415   121A      1.344591  
     122A      1.360093   123A      1.378870   124A      1.415138  
     125A      1.441699   126A      1.500928   127A      1.505322  
     128A      1.532952   129A      1.544568   130A      1.550175  
     131A      1.573543   132A      1.585209   133A      1.587737  
     134A      1.599882   135A      1.604266   136A      1.625688  
     137A      1.678616   138A      1.703922   139A      1.717851  
     140A      1.726656   141A      1.733675   142A      1.746617  
     143A      1.757797   144A      1.772381   145A      1.788263  
     146A      1.789780   147A      1.800951   148A      1.816934  
     149A      1.817983   150A      1.828715   151A      1.840492  
     152A      1.843176   153A      1.852180   154A      1.863454  
     155A      1.873414   156A      1.885839   157A      1.895803  
     158A      1.898588   159A      1.929853   160A      1.944969  
     161A      1.948158   162A      1.953306   163A      1.973817  
     164A      2.009080   165A      2.022243   166A      2.037405  
     167A      2.054060   168A      2.067044   169A      2.090354  
     170A      2.132531   171A      2.189937   172A      2.203245  
     173A      2.217338   174A      2.230707   175A      2.244471  
     176A      2.248316   177A      2.259750   178A      2.269705  
     179A      2.298767   180A      2.325642   181A      2.348877  
     182A      2.373015   183A      2.380739   184A      2.390413  
     185A      2.409949   186A      2.443567   187A      2.451212  
     188A      2.471228   189A      2.502251   190A      2.505774  
     191A      2.528608   192A      2.560834   193A      2.631683  
     194A      2.637079   195A      2.651538   196A      2.660793  
     197A      2.667497   198A      2.681073   199A      2.697528  
     200A      2.714687   201A      2.738744   202A      2.764602  
     203A      2.812344   204A      2.823315   205A      2.854672  
     206A      2.867543   207A      2.877915   208A      2.890080  
     209A      2.906161   210A      2.935251   211A      3.001924  
     212A      3.083856   213A      3.094251   214A      3.147025  
     215A      3.583375   216A      3.668394  

    Final Occupation by Irrep:
              A 
    DOCC [    37 ]

  @RHF Final Energy:  -400.89239773059637

   => Energetics <=

    Nuclear Repulsion Energy =            491.2993054331650455
    One-Electron Energy =               -1504.2810954706933444
    Two-Electron Energy =                 612.0893923069319271
    Total Energy =                       -400.8923977305963717

Computation Completed


Properties will be evaluated at   0.000000,   0.000000,   0.000000 [a0]

Properties computed using the SCF density matrix

  Nuclear Dipole Moment: [e a0]
     X:    -7.8868      Y:    -5.3719      Z:     2.3851

  Electronic Dipole Moment: [e a0]
     X:    10.1583      Y:     6.7738      Z:    -2.9616

  Dipole Moment: [e a0]
     X:     2.2715      Y:     1.4019      Z:    -0.5765     Total:     2.7308

  Dipole Moment: [D]
     X:     5.7736      Y:     3.5634      Z:    -1.4652     Total:     6.9411


*** tstop() called on ds3 at Sun Apr 26 23:10:15 2020
Module time:
	user time   =     102.41 seconds =       1.71 minutes
	system time =      35.48 seconds =       0.59 minutes
	total time  =        149 seconds =       2.48 minutes
Total time:
	user time   =     102.41 seconds =       1.71 minutes
	system time =      35.48 seconds =       0.59 minutes
	total time  =        149 seconds =       2.48 minutes
                                     G D M A

                                 by Anthony Stone

                           version 2.2.06, 22 June 2011

               Distributed Multipoles from Gaussian wavefunctions


Starting at 23:10:15 on 26 Apr 2020 


Using SCF density matrix from file ./SSI/SSI-115GLN-118ARG-1-dimer.test.24570.fchk


                         Distributed Multipole Analysis

Standard DMA

Positions and radii in angstrom
Multipole moments in atomic units, ea_0^k for rank k

C          x = -1.579742  y = -0.873599  z =  1.460747 angstrom
           Maximum rank =  0   Radius =  0.650 angstrom
                   Q00  =  -0.073902

C          x = -2.787742  y = -1.806599  z =  1.610747 angstrom
           Maximum rank =  0   Radius =  0.650 angstrom
                   Q00  =  -0.251854

C          x = -0.264742  y = -1.437599  z =  2.007747 angstrom
           Maximum rank =  0   Radius =  0.650 angstrom
                   Q00  =  -0.244150

H          x = -1.449742  y = -0.696599  z =  0.404747 angstrom
           Maximum rank =  0   Radius =  0.325 angstrom
                   Q00  =  -0.000326

H          x = -1.792742  y =  0.100401  z =  1.905747 angstrom
           Maximum rank =  0   Radius =  0.325 angstrom
                   Q00  =   0.053944

H          x = -3.046742  y = -1.922599  z =  2.664747 angstrom
           Maximum rank =  0   Radius =  0.325 angstrom
                   Q00  =   0.100724

H          x = -0.059742  y = -2.415599  z =  1.570747 angstrom
           Maximum rank =  0   Radius =  0.325 angstrom
                   Q00  =   0.084696

H          x =  0.538258  y = -0.765599  z =  1.711747 angstrom
           Maximum rank =  0   Radius =  0.325 angstrom
                   Q00  =   0.036494

H          x = -2.593072  y = -2.782949  z =  1.142947 angstrom
           Maximum rank =  0   Radius =  0.325 angstrom
                   Q00  =   0.082582

H          x = -3.653922  y = -1.398859  z =  1.069017 angstrom
           Maximum rank =  0   Radius =  0.325 angstrom
                   Q00  =   0.090061

H          x = -0.236502  y = -1.511469  z =  3.104897 angstrom
           Maximum rank =  0   Radius =  0.325 angstrom
                   Q00  =   0.109855

C          x = -0.186742  y = -0.008599  z = -1.748253 angstrom
           Maximum rank =  0   Radius =  0.650 angstrom
                   Q00  =  -0.036775

C          x = -1.557742  y =  0.402401  z = -2.273253 angstrom
           Maximum rank =  0   Radius =  0.650 angstrom
                   Q00  =  -0.201415

C          x =  1.573258  y =  0.933401  z = -0.284253 angstrom
           Maximum rank =  0   Radius =  0.650 angstrom
                   Q00  =   1.086080

N          x =  0.382258  y =  1.014401  z = -0.860253 angstrom
           Maximum rank =  0   Radius =  0.650 angstrom
                   Q00  =  -0.490785

N          x =  2.341258  y = -0.117599  z = -0.482253 angstrom
           Maximum rank =  0   Radius =  0.650 angstrom
                   Q00  =  -0.578973

N          x =  1.997258  y =  1.906401  z =  0.496747 angstrom
           Maximum rank =  0   Radius =  0.650 angstrom
                   Q00  =  -0.600143

H          x = -0.252742  y = -0.974599  z = -1.245253 angstrom
           Maximum rank =  0   Radius =  0.325 angstrom
                   Q00  =   0.081733

H          x =  0.477258  y = -0.124599  z = -2.608253 angstrom
           Maximum rank =  0   Radius =  0.325 angstrom
                   Q00  =   0.100234

H          x = -1.444742  y =  1.310401  z = -2.867253 angstrom
           Maximum rank =  0   Radius =  0.325 angstrom
                   Q00  =   0.103487

H          x = -2.225742  y =  0.613401  z = -1.437253 angstrom
           Maximum rank =  0   Radius =  0.325 angstrom
                   Q00  =   0.101059

H          x = -0.179742  y =  1.833401  z = -0.660253 angstrom
           Maximum rank =  0   Radius =  0.325 angstrom
                   Q00  =   0.231645

H          x =  1.994258  y = -0.934599  z = -0.977253 angstrom
           Maximum rank =  0   Radius =  0.325 angstrom
                   Q00  =   0.280191

H          x =  3.248258  y = -0.165599  z = -0.044253 angstrom
           Maximum rank =  0   Radius =  0.325 angstrom
                   Q00  =   0.263162

H          x =  1.388258  y =  2.677401  z =  0.730747 angstrom
           Maximum rank =  0   Radius =  0.325 angstrom
                   Q00  =   0.266536

H          x =  2.882258  y =  1.828401  z =  0.974747 angstrom
           Maximum rank =  0   Radius =  0.325 angstrom
                   Q00  =   0.263918

H          x = -1.991302  y = -0.391859  z = -2.898703 angstrom
           Maximum rank =  0   Radius =  0.325 angstrom
                   Q00  =   0.141921

Total multipoles referred to origin at
           x =   0.000000,  y =    0.000000,  z =    0.000000 angstrom
                   Q00  =   1.000000

Finished at 23:10:15 on 26 Apr 2020 

  DMA results are available in the Python driver through the
	  variable('DMA DISTRIBUTED MULTIPOLES')
  and
	  variable('DMA TOTAL MULTIPOLES')
  commands.


    Psi4 stopped on: Sunday, 26 April 2020 11:10PM
    Psi4 wall time for execution: 0:02:29.20

*** Psi4 exiting successfully. Buy a developer a beer!
