
    -----------------------------------------------------------------------
          Psi4: An Open-Source Ab Initio Electronic Structure Package
                               Psi4 1.3.2 release

                         Git: Rev {HEAD} ecbda83 


    R. M. Parrish, L. A. Burns, D. G. A. Smith, A. C. Simmonett,
    A. E. DePrince III, E. G. Hohenstein, U. Bozkaya, A. Yu. Sokolov,
    R. Di Remigio, R. M. Richard, J. F. Gonthier, A. M. James,
    H. R. McAlexander, A. Kumar, M. Saitow, X. Wang, B. P. Pritchard,
    P. Verma, H. F. Schaefer III, K. Patkowski, R. A. King, E. F. Valeev,
    F. A. Evangelista, J. M. Turney, T. D. Crawford, and C. D. Sherrill,
    J. Chem. Theory Comput. 13(7) pp 3185--3197 (2017).
    (doi: 10.1021/acs.jctc.7b00174)


                         Additional Contributions by
    P. Kraus, H. Kruse, M. H. Lechner, M. C. Schieber, R. A. Shaw,
    A. Alenaizan, R. Galvelis, Z. L. Glick, S. Lehtola, and J. P. Misiewicz

    -----------------------------------------------------------------------


    Psi4 started on: Tuesday, 28 April 2020 12:44AM

    Process ID: 16828
    Host:       ds3
    PSIDATADIR: /theoryfs2/ds/metcalf/miniconda2/envs/tf2gpu/share/psi4
    Memory:     500.0 MiB
    Threads:    1
    
  ==> Input File <==

--------------------------------------------------------------------------
import numpy as np
set {scf_type pk
basis cc-pvdz
d_convergence 10
gdma_switch   0
gdma_limit    0
gdma_origin   [ 0.0,  0.0,  0.0 ]
}
molecule test {
    units Angstrom
    0 1
    --
    0 1
    C               -0.770390226872782    -0.291438473054159    -0.825572244528716
    C               -2.280390226872781    -0.551438473054159    -0.911572244528717
    C               -0.032390226872782    -1.560438473054159    -0.460572244528717
    C               -0.316390226872782     0.223561526945841    -2.245572244528717
    H               -0.559390226872782     0.482561526945841    -0.093572244528717
    H               -2.474390226872782    -1.270438473054159    -1.708572244528716
    H               -2.778390226872782     0.381561526945841    -1.165572244528717
    H               -0.317390226872782    -2.377438473054159    -1.123572244528716
    H                1.034609773127218    -1.373438473054159    -0.568572244528717
    H               -0.211390226872782    -1.837438473054159     0.577427755471283
    H               -0.875390226872782     1.121561526945841    -2.516572244528716
    H                0.742609773127218     0.472561526945841    -2.190572244528716
    H               -0.470390226872782    -0.549438473054159    -2.999572244528717
    H               -2.694008226872781    -0.955721473054159     0.024097755471283
    C                1.493609773127218     1.598561526945841     1.611427755471283
    C                1.799609773127218     0.540561526945841     2.731427755471283
    H                1.969609773127218     2.543561526945841     1.863427755471283
    H                1.866609773127218     1.243561526945841     0.649427755471283
    H                0.417609773127218     1.755561526945841     1.547427755471284
    H                1.316609773127218    -0.391438473054159     2.439427755471284
    H                1.412089773127218     0.861318526945841     3.709657755471284
    H                2.887179773127218     0.376887526945841     2.751527755471284

}
e, wfn = energy('scf', return_wfn=True)
gdma(wfn)
dmavals = variable('DMA DISTRIBUTED MULTIPOLES')
charges = np.array(dmavals)
print(charges)
np.save('SSI-135LEU-139LEU-1-dimer.npy', np.array(charges))--------------------------------------------------------------------------

*** tstart() called on ds3
*** at Tue Apr 28 00:44:39 2020

   => Loading Basis Set <=

    Name: CC-PVDZ
    Role: ORBITAL
    Keyword: BASIS
    atoms 1-4, 15-16  entry C          line   138 file /theoryfs2/ds/metcalf/miniconda2/envs/tf2gpu/share/psi4/basis/cc-pvdz.gbs 
    atoms 5-14, 17-22 entry H          line    22 file /theoryfs2/ds/metcalf/miniconda2/envs/tf2gpu/share/psi4/basis/cc-pvdz.gbs 


         ---------------------------------------------------------
                                   SCF
               by Justin Turney, Rob Parrish, Andy Simmonett
                          and Daniel G. A. Smith
                              RHF Reference
                        1 Threads,    500 MiB Core
         ---------------------------------------------------------

  ==> Geometry <==

    Molecular point group: c1
    Full point group: C1

    Geometry (in Angstrom), charge = 0, multiplicity = 1:

       Center              X                  Y                   Z               Mass       
    ------------   -----------------  -----------------  -----------------  -----------------
         C           -0.770390226873    -0.291438473054    -0.825572244529    12.000000000000
         C           -2.280390226873    -0.551438473054    -0.911572244529    12.000000000000
         C           -0.032390226873    -1.560438473054    -0.460572244529    12.000000000000
         C           -0.316390226873     0.223561526946    -2.245572244529    12.000000000000
         H           -0.559390226873     0.482561526946    -0.093572244529     1.007825032230
         H           -2.474390226873    -1.270438473054    -1.708572244529     1.007825032230
         H           -2.778390226873     0.381561526946    -1.165572244529     1.007825032230
         H           -0.317390226873    -2.377438473054    -1.123572244529     1.007825032230
         H            1.034609773127    -1.373438473054    -0.568572244529     1.007825032230
         H           -0.211390226873    -1.837438473054     0.577427755471     1.007825032230
         H           -0.875390226873     1.121561526946    -2.516572244529     1.007825032230
         H            0.742609773127     0.472561526946    -2.190572244529     1.007825032230
         H           -0.470390226873    -0.549438473054    -2.999572244529     1.007825032230
         H           -2.694008226873    -0.955721473054     0.024097755471     1.007825032230
         C            1.493609773127     1.598561526946     1.611427755471    12.000000000000
         C            1.799609773127     0.540561526946     2.731427755471    12.000000000000
         H            1.969609773127     2.543561526946     1.863427755471     1.007825032230
         H            1.866609773127     1.243561526946     0.649427755471     1.007825032230
         H            0.417609773127     1.755561526946     1.547427755471     1.007825032230
         H            1.316609773127    -0.391438473054     2.439427755471     1.007825032230
         H            1.412089773127     0.861318526946     3.709657755471     1.007825032230
         H            2.887179773127     0.376887526946     2.751527755471     1.007825032230

  Running in c1 symmetry.

  Rotational constants: A =      0.14032  B =      0.03604  C =      0.03434 [cm^-1]
  Rotational constants: A =   4206.58649  B =   1080.58691  C =   1029.47351 [MHz]
  Nuclear repulsion =  246.867734901504974

  Charge       = 0
  Multiplicity = 1
  Electrons    = 52
  Nalpha       = 26
  Nbeta        = 26

  ==> Algorithm <==

  SCF Algorithm Type is PK.
  DIIS enabled.
  MOM disabled.
  Fractional occupation disabled.
  Guess Type is SAD.
  Energy threshold   = 1.00e-06
  Density threshold  = 1.00e-10
  Integral threshold = 0.00e+00

  ==> Primary Basis <==

  Basis Set: CC-PVDZ
    Blend: CC-PVDZ
    Number of shells: 84
    Number of basis function: 164
    Number of Cartesian functions: 170
    Spherical Harmonics?: true
    Max angular momentum: 2

  ==> Pre-Iterations <==

   -------------------------------------------------------
    Irrep   Nso     Nmo     Nalpha   Nbeta   Ndocc  Nsocc
   -------------------------------------------------------
     A        164     164       0       0       0       0
   -------------------------------------------------------
    Total     164     164      26      26      26       0
   -------------------------------------------------------

  ==> Integral Setup <==

  Using integral reordering PK algorithm.
  Sizing the integral batches needed.
  Building batch lookup table.
   Calculation information:
      Number of atoms:                  22
      Number of AO shells:              84
      Number of primitives:            212
      Number of atomic orbitals:       170
      Number of basis functions:       164

      Integral cutoff                 1.00e-12
      Number of threads:                 1

	Batch   1 pq = [       0,    9405] index = [             0,44231715] size =     44231715
	Batch   2 pq = [    9405,   13530] index = [      44231715,91537215] size =     47305500
  Task number: 9
  Buffer size: 11059200
  Buffer per thread: 2
  We computed 5875036 shell quartets total.
  Whereas there are 6374235 unique shell quartets.

  ==> DiskJK: Disk-Based J/K Matrices <==

    J tasked:                  Yes
    K tasked:                  Yes
    wK tasked:                  No
    Memory [MiB]:              375
    Schwarz Cutoff:          1E-12

    OpenMP threads:              1

  Minimum eigenvalue in the overlap matrix is 4.5699834164E-03.
  Using Symmetric Orthogonalization.

  SCF Guess: Superposition of Atomic Densities via on-the-fly atomic UHF.

  ==> Iterations <==

                        Total Energy        Delta E     RMS |[F,P]|

   @RHF iter SAD:  -235.31831827102840   -2.35318e+02   0.00000e+00 
   @RHF iter   1:  -236.31563544818582   -9.97317e-01   3.48277e-03 DIIS
   @RHF iter   2:  -236.50222383441212   -1.86588e-01   1.49646e-03 DIIS
   @RHF iter   3:  -236.53465577175393   -3.24319e-02   3.09765e-04 DIIS
   @RHF iter   4:  -236.53721645588865   -2.56068e-03   6.80731e-05 DIIS
   @RHF iter   5:  -236.53729850083334   -8.20449e-05   1.57180e-05 DIIS
   @RHF iter   6:  -236.53730389144621   -5.39061e-06   2.50251e-06 DIIS
   @RHF iter   7:  -236.53730405482264   -1.63376e-07   5.80402e-07 DIIS
   @RHF iter   8:  -236.53730406461372   -9.79108e-09   1.40295e-07 DIIS
   @RHF iter   9:  -236.53730406519929   -5.85572e-10   4.23848e-08 DIIS
   @RHF iter  10:  -236.53730406525682   -5.75255e-11   1.04530e-08 DIIS
   @RHF iter  11:  -236.53730406526074   -3.92220e-12   2.18340e-09 DIIS
   @RHF iter  12:  -236.53730406526168   -9.37916e-13   4.70725e-10 DIIS
   @RHF iter  13:  -236.53730406526040    1.27898e-12   1.25093e-10 DIIS
   @RHF iter  14:  -236.53730406526043   -2.84217e-14   3.00816e-11 DIIS
  Energy and wave function converged.


  ==> Post-Iterations <==

    Orbital Energies [Eh]
    ---------------------

    Doubly Occupied:                                                      

       1A    -11.224458     2A    -11.223455     3A    -11.220974  
       4A    -11.216088     5A    -11.213099     6A    -11.212726  
       7A     -1.078342     8A     -1.010364     9A     -0.928311  
      10A     -0.920059    11A     -0.840551    12A     -0.765325  
      13A     -0.631115    14A     -0.597863    15A     -0.594366  
      16A     -0.587972    17A     -0.585123    18A     -0.538557  
      19A     -0.530642    20A     -0.508837    21A     -0.496692  
      22A     -0.492048    23A     -0.486929    24A     -0.465700  
      25A     -0.458393    26A     -0.442624  

    Virtual:                                                              

      27A      0.162621    28A      0.197796    29A      0.208610  
      30A      0.217734    31A      0.231463    32A      0.245387  
      33A      0.249574    34A      0.262361    35A      0.264336  
      36A      0.270178    37A      0.295756    38A      0.307674  
      39A      0.315792    40A      0.321852    41A      0.334030  
      42A      0.343906    43A      0.374698    44A      0.386890  
      45A      0.401244    46A      0.412234    47A      0.558328  
      48A      0.565725    49A      0.594421    50A      0.600326  
      51A      0.610934    52A      0.614537    53A      0.638073  
      54A      0.655608    55A      0.689137    56A      0.739659  
      57A      0.773913    58A      0.792078    59A      0.800289  
      60A      0.820978    61A      0.834093    62A      0.848871  
      63A      0.865463    64A      0.882131    65A      0.887075  
      66A      0.896626    67A      0.899992    68A      0.901713  
      69A      0.909240    70A      0.915603    71A      0.921418  
      72A      0.923350    73A      0.943985    74A      0.947664  
      75A      0.959756    76A      0.970677    77A      0.986379  
      78A      0.993427    79A      1.012960    80A      1.024525  
      81A      1.119715    82A      1.127875    83A      1.133130  
      84A      1.145081    85A      1.228210    86A      1.251696  
      87A      1.371297    88A      1.392367    89A      1.409660  
      90A      1.458325    91A      1.485403    92A      1.540220  
      93A      1.558617    94A      1.578454    95A      1.661648  
      96A      1.669369    97A      1.676664    98A      1.683482  
      99A      1.684449   100A      1.693389   101A      1.707880  
     102A      1.721783   103A      1.742087   104A      1.816551  
     105A      1.838781   106A      1.853221   107A      1.856977  
     108A      1.875494   109A      1.903237   110A      1.922053  
     111A      1.925603   112A      1.932460   113A      1.939204  
     114A      1.946630   115A      1.950927   116A      1.955685  
     117A      1.960987   118A      1.970696   119A      1.973216  
     120A      2.000765   121A      2.014134   122A      2.029940  
     123A      2.065529   124A      2.072067   125A      2.090816  
     126A      2.109112   127A      2.131325   128A      2.133336  
     129A      2.155802   130A      2.244089   131A      2.255531  
     132A      2.272243   133A      2.294771   134A      2.299780  
     135A      2.324415   136A      2.340327   137A      2.363461  
     138A      2.386847   139A      2.449673   140A      2.468306  
     141A      2.483460   142A      2.555126   143A      2.563265  
     144A      2.586302   145A      2.600363   146A      2.617680  
     147A      2.707089   148A      2.714273   149A      2.759928  
     150A      2.768429   151A      2.785418   152A      2.791328  
     153A      2.796032   154A      2.803129   155A      2.829831  
     156A      2.842334   157A      2.843124   158A      2.847542  
     159A      2.870809   160A      2.945195   161A      2.968007  
     162A      3.006115   163A      3.018159   164A      3.146785  

    Final Occupation by Irrep:
              A 
    DOCC [    26 ]

  @RHF Final Energy:  -236.53730406526043

   => Energetics <=

    Nuclear Repulsion Energy =            246.8677349015049742
    One-Electron Energy =                -806.2688580963517779
    Two-Electron Energy =                 322.8638191295864317
    Total Energy =                       -236.5373040652604004

Computation Completed


Properties will be evaluated at   0.000000,   0.000000,   0.000000 [a0]

Properties computed using the SCF density matrix

  Nuclear Dipole Moment: [e a0]
     X:     1.1870      Y:     0.4535      Z:     1.1211

  Electronic Dipole Moment: [e a0]
     X:    -1.1629      Y:    -0.4152      Z:    -1.0834

  Dipole Moment: [e a0]
     X:     0.0241      Y:     0.0384      Z:     0.0377     Total:     0.0589

  Dipole Moment: [D]
     X:     0.0612      Y:     0.0975      Z:     0.0958     Total:     0.1497


*** tstop() called on ds3 at Tue Apr 28 00:45:22 2020
Module time:
	user time   =      31.32 seconds =       0.52 minutes
	system time =      13.72 seconds =       0.23 minutes
	total time  =         43 seconds =       0.72 minutes
Total time:
	user time   =      31.32 seconds =       0.52 minutes
	system time =      13.72 seconds =       0.23 minutes
	total time  =         43 seconds =       0.72 minutes
                                     G D M A

                                 by Anthony Stone

                           version 2.2.06, 22 June 2011

               Distributed Multipoles from Gaussian wavefunctions


Starting at 0:45:22 on 28 Apr 2020  


Using SCF density matrix from file ./SSI/SSI-135LEU-139LEU-1-dimer.test.16828.fchk


                         Distributed Multipole Analysis

Standard DMA

Positions and radii in angstrom
Multipole moments in atomic units, ea_0^k for rank k

C          x = -0.770390  y = -0.291438  z = -0.825572 angstrom
           Maximum rank =  0   Radius =  0.650 angstrom
                   Q00  =   0.002197

C          x = -2.280390  y = -0.551438  z = -0.911572 angstrom
           Maximum rank =  0   Radius =  0.650 angstrom
                   Q00  =  -0.235277

C          x = -0.032390  y = -1.560438  z = -0.460572 angstrom
           Maximum rank =  0   Radius =  0.650 angstrom
                   Q00  =  -0.239150

C          x = -0.316390  y =  0.223562  z = -2.245572 angstrom
           Maximum rank =  0   Radius =  0.650 angstrom
                   Q00  =  -0.268471

H          x = -0.559390  y =  0.482562  z = -0.093572 angstrom
           Maximum rank =  0   Radius =  0.325 angstrom
                   Q00  =   0.029213

H          x = -2.474390  y = -1.270438  z = -1.708572 angstrom
           Maximum rank =  0   Radius =  0.325 angstrom
                   Q00  =   0.074419

H          x = -2.778390  y =  0.381562  z = -1.165572 angstrom
           Maximum rank =  0   Radius =  0.325 angstrom
                   Q00  =   0.078964

H          x = -0.317390  y = -2.377438  z = -1.123572 angstrom
           Maximum rank =  0   Radius =  0.325 angstrom
                   Q00  =   0.077863

H          x =  1.034610  y = -1.373438  z = -0.568572 angstrom
           Maximum rank =  0   Radius =  0.325 angstrom
                   Q00  =   0.074182

H          x = -0.211390  y = -1.837438  z =  0.577428 angstrom
           Maximum rank =  0   Radius =  0.325 angstrom
                   Q00  =   0.082025

H          x = -0.875390  y =  1.121562  z = -2.516572 angstrom
           Maximum rank =  0   Radius =  0.325 angstrom
                   Q00  =   0.084006

H          x =  0.742610  y =  0.472562  z = -2.190572 angstrom
           Maximum rank =  0   Radius =  0.325 angstrom
                   Q00  =   0.080253

H          x = -0.470390  y = -0.549438  z = -2.999572 angstrom
           Maximum rank =  0   Radius =  0.325 angstrom
                   Q00  =   0.081186

H          x = -2.694008  y = -0.955721  z =  0.024098 angstrom
           Maximum rank =  0   Radius =  0.325 angstrom
                   Q00  =   0.077257

C          x =  1.493610  y =  1.598562  z =  1.611428 angstrom
           Maximum rank =  0   Radius =  0.650 angstrom
                   Q00  =  -0.250750

C          x =  1.799610  y =  0.540562  z =  2.731428 angstrom
           Maximum rank =  0   Radius =  0.650 angstrom
                   Q00  =  -0.246060

H          x =  1.969610  y =  2.543562  z =  1.863428 angstrom
           Maximum rank =  0   Radius =  0.325 angstrom
                   Q00  =   0.082864

H          x =  1.866610  y =  1.243562  z =  0.649428 angstrom
           Maximum rank =  0   Radius =  0.325 angstrom
                   Q00  =   0.083772

H          x =  0.417610  y =  1.755562  z =  1.547428 angstrom
           Maximum rank =  0   Radius =  0.325 angstrom
                   Q00  =   0.081224

H          x =  1.316610  y = -0.391438  z =  2.439428 angstrom
           Maximum rank =  0   Radius =  0.325 angstrom
                   Q00  =   0.082703

H          x =  1.412090  y =  0.861319  z =  3.709658 angstrom
           Maximum rank =  0   Radius =  0.325 angstrom
                   Q00  =   0.086031

H          x =  2.887180  y =  0.376888  z =  2.751528 angstrom
           Maximum rank =  0   Radius =  0.325 angstrom
                   Q00  =   0.081550

Total multipoles referred to origin at
           x =   0.000000,  y =    0.000000,  z =    0.000000 angstrom
                   Q00  =  -0.000000

Finished at 0:45:22 on 28 Apr 2020  

  DMA results are available in the Python driver through the
	  variable('DMA DISTRIBUTED MULTIPOLES')
  and
	  variable('DMA TOTAL MULTIPOLES')
  commands.


    Psi4 stopped on: Tuesday, 28 April 2020 12:45AM
    Psi4 wall time for execution: 0:00:43.60

*** Psi4 exiting successfully. Buy a developer a beer!
