
    -----------------------------------------------------------------------
          Psi4: An Open-Source Ab Initio Electronic Structure Package
                               Psi4 1.3.2 release

                         Git: Rev {HEAD} ecbda83 


    R. M. Parrish, L. A. Burns, D. G. A. Smith, A. C. Simmonett,
    A. E. DePrince III, E. G. Hohenstein, U. Bozkaya, A. Yu. Sokolov,
    R. Di Remigio, R. M. Richard, J. F. Gonthier, A. M. James,
    H. R. McAlexander, A. Kumar, M. Saitow, X. Wang, B. P. Pritchard,
    P. Verma, H. F. Schaefer III, K. Patkowski, R. A. King, E. F. Valeev,
    F. A. Evangelista, J. M. Turney, T. D. Crawford, and C. D. Sherrill,
    J. Chem. Theory Comput. 13(7) pp 3185--3197 (2017).
    (doi: 10.1021/acs.jctc.7b00174)


                         Additional Contributions by
    P. Kraus, H. Kruse, M. H. Lechner, M. C. Schieber, R. A. Shaw,
    A. Alenaizan, R. Galvelis, Z. L. Glick, S. Lehtola, and J. P. Misiewicz

    -----------------------------------------------------------------------


    Psi4 started on: Monday, 27 April 2020 10:17PM

    Process ID: 6619
    Host:       ds3
    PSIDATADIR: /theoryfs2/ds/metcalf/miniconda2/envs/tf2gpu/share/psi4
    Memory:     500.0 MiB
    Threads:    1
    
  ==> Input File <==

--------------------------------------------------------------------------
import numpy as np
set {scf_type pk
basis cc-pvdz
d_convergence 10
gdma_switch   0
gdma_limit    0
gdma_origin   [ 0.0,  0.0,  0.0 ]
}
molecule test {
    units Angstrom
    -1 1
    --
    -1 1
    C                1.706961542615126     1.030287298525998    -0.402705069032920
    C                2.625961542615126     2.024287298525998     0.263294930967080
    C                2.010961542615126    -0.235712701474002     0.366294930967080
    H                1.934961542615126     0.921287298525998    -1.463705069032920
    H                0.680961542615126     1.351287298525998    -0.264705069032920
    H                3.649961542615126     1.900287298525998    -0.092705069032920
    H                2.261961542615126     3.033287298525999     0.068294930967080
    H                2.974961542615126    -0.632712701474002     0.040294930967080
    H                1.236961542615126    -0.989712701474002     0.237294930967080
    H                2.553991542615126     1.742397298525998     1.324123930967080
    H                2.071451542615126     0.117867298525998     1.406159930967080
    C               -1.941038457384874    -1.147712701474002    -1.386705069032920
    C               -1.563038457384874    -0.674712701474002     0.008294930967080
    O               -1.300038457384874    -1.533712701474002     0.881294930967080
    O               -1.539038457384874     0.554287298525998     0.230294930967080
    H               -1.427038457384874    -0.537712701474002    -2.130705069032920
    H               -3.006038457384874    -1.021712701474002    -1.500705069032920
    H               -1.687028457384874    -2.204769701474001    -1.554366069032920

}
e, wfn = energy('scf', return_wfn=True)
gdma(wfn)
dmavals = variable('DMA DISTRIBUTED MULTIPOLES')
charges = np.array(dmavals)
print(charges)
np.save('SSI-133PRO-151ASP-1-dimer.npy', np.array(charges))--------------------------------------------------------------------------

*** tstart() called on ds3
*** at Mon Apr 27 22:17:44 2020

   => Loading Basis Set <=

    Name: CC-PVDZ
    Role: ORBITAL
    Keyword: BASIS
    atoms 1-3, 12-13  entry C          line   138 file /theoryfs2/ds/metcalf/miniconda2/envs/tf2gpu/share/psi4/basis/cc-pvdz.gbs 
    atoms 4-11, 16-18 entry H          line    22 file /theoryfs2/ds/metcalf/miniconda2/envs/tf2gpu/share/psi4/basis/cc-pvdz.gbs 
    atoms 14-15       entry O          line   198 file /theoryfs2/ds/metcalf/miniconda2/envs/tf2gpu/share/psi4/basis/cc-pvdz.gbs 


         ---------------------------------------------------------
                                   SCF
               by Justin Turney, Rob Parrish, Andy Simmonett
                          and Daniel G. A. Smith
                              RHF Reference
                        1 Threads,    500 MiB Core
         ---------------------------------------------------------

  ==> Geometry <==

    Molecular point group: c1
    Full point group: C1

    Geometry (in Angstrom), charge = -1, multiplicity = 1:

       Center              X                  Y                   Z               Mass       
    ------------   -----------------  -----------------  -----------------  -----------------
         C            1.706961542615     1.030287298526    -0.402705069033    12.000000000000
         C            2.625961542615     2.024287298526     0.263294930967    12.000000000000
         C            2.010961542615    -0.235712701474     0.366294930967    12.000000000000
         H            1.934961542615     0.921287298526    -1.463705069033     1.007825032230
         H            0.680961542615     1.351287298526    -0.264705069033     1.007825032230
         H            3.649961542615     1.900287298526    -0.092705069033     1.007825032230
         H            2.261961542615     3.033287298526     0.068294930967     1.007825032230
         H            2.974961542615    -0.632712701474     0.040294930967     1.007825032230
         H            1.236961542615    -0.989712701474     0.237294930967     1.007825032230
         H            2.553991542615     1.742397298526     1.324123930967     1.007825032230
         H            2.071451542615     0.117867298526     1.406159930967     1.007825032230
         C           -1.941038457385    -1.147712701474    -1.386705069033    12.000000000000
         C           -1.563038457385    -0.674712701474     0.008294930967    12.000000000000
         O           -1.300038457385    -1.533712701474     0.881294930967    15.994914619570
         O           -1.539038457385     0.554287298526     0.230294930967    15.994914619570
         H           -1.427038457385    -0.537712701474    -2.130705069033     1.007825032230
         H           -3.006038457385    -1.021712701474    -1.500705069033     1.007825032230
         H           -1.687028457385    -2.204769701474    -1.554366069033     1.007825032230

  Running in c1 symmetry.

  Rotational constants: A =      0.14270  B =      0.03350  C =      0.03217 [cm^-1]
  Rotational constants: A =   4278.08778  B =   1004.28938  C =    964.46033 [MHz]
  Nuclear repulsion =  298.310680633143875

  Charge       = -1
  Multiplicity = 1
  Electrons    = 58
  Nalpha       = 29
  Nbeta        = 29

  ==> Algorithm <==

  SCF Algorithm Type is PK.
  DIIS enabled.
  MOM disabled.
  Fractional occupation disabled.
  Guess Type is SAD.
  Energy threshold   = 1.00e-06
  Density threshold  = 1.00e-10
  Integral threshold = 0.00e+00

  ==> Primary Basis <==

  Basis Set: CC-PVDZ
    Blend: CC-PVDZ
    Number of shells: 75
    Number of basis function: 153
    Number of Cartesian functions: 160
    Spherical Harmonics?: true
    Max angular momentum: 2

  ==> Pre-Iterations <==

   -------------------------------------------------------
    Irrep   Nso     Nmo     Nalpha   Nbeta   Ndocc  Nsocc
   -------------------------------------------------------
     A        153     153       0       0       0       0
   -------------------------------------------------------
    Total     153     153      29      29      29       0
   -------------------------------------------------------

  ==> Integral Setup <==

  Using integral reordering PK algorithm.
  Sizing the integral batches needed.
  Building batch lookup table.
   Calculation information:
      Number of atoms:                  18
      Number of AO shells:              75
      Number of primitives:            209
      Number of atomic orbitals:       160
      Number of basis functions:       153

      Integral cutoff                 1.00e-12
      Number of threads:                 1

	Batch   1 pq = [       0,    9405] index = [             0,44231715] size =     44231715
	Batch   2 pq = [    9405,   11781] index = [      44231715,69401871] size =     25170156
  Task number: 7
  Buffer size: 11059200
  Buffer per thread: 2
  We computed 3643402 shell quartets total.
  Whereas there are 4062675 unique shell quartets.

  ==> DiskJK: Disk-Based J/K Matrices <==

    J tasked:                  Yes
    K tasked:                  Yes
    wK tasked:                  No
    Memory [MiB]:              375
    Schwarz Cutoff:          1E-12

    OpenMP threads:              1

  Minimum eigenvalue in the overlap matrix is 4.8811231992E-03.
  Using Symmetric Orthogonalization.

  SCF Guess: Superposition of Atomic Densities via on-the-fly atomic UHF.

  ==> Iterations <==

                        Total Energy        Delta E     RMS |[F,P]|

   @RHF iter SAD:  -344.06814853800739   -3.44068e+02   0.00000e+00 
   @RHF iter   1:  -345.19482923943207   -1.12668e+00   5.00917e-03 DIIS
   @RHF iter   2:  -345.42639989537878   -2.31571e-01   2.77315e-03 DIIS
   @RHF iter   3:  -345.49460777377539   -6.82079e-02   4.23820e-04 DIIS
   @RHF iter   4:  -345.49752518401374   -2.91741e-03   1.60995e-04 DIIS
   @RHF iter   5:  -345.49792922875230   -4.04045e-04   2.50310e-05 DIIS
   @RHF iter   6:  -345.49794176782279   -1.25391e-05   6.99210e-06 DIIS
   @RHF iter   7:  -345.49794271831126   -9.50488e-07   1.78895e-06 DIIS
   @RHF iter   8:  -345.49794279349408   -7.51828e-08   7.35437e-07 DIIS
   @RHF iter   9:  -345.49794280279639   -9.30231e-09   2.75833e-07 DIIS
   @RHF iter  10:  -345.49794280515749   -2.36111e-09   1.26704e-07 DIIS
   @RHF iter  11:  -345.49794280565931   -5.01814e-10   3.32118e-08 DIIS
   @RHF iter  12:  -345.49794280570393   -4.46221e-11   8.95838e-09 DIIS
   @RHF iter  13:  -345.49794280570819   -4.26326e-12   2.70803e-09 DIIS
   @RHF iter  14:  -345.49794280570813    5.68434e-14   8.14070e-10 DIIS
   @RHF iter  15:  -345.49794280570853   -3.97904e-13   2.51472e-10 DIIS
   @RHF iter  16:  -345.49794280570796    5.68434e-13   8.05779e-11 DIIS
  Energy and wave function converged.


  ==> Post-Iterations <==

    Orbital Energies [Eh]
    ---------------------

    Doubly Occupied:                                                      

       1A    -20.262223     2A    -20.261411     3A    -11.118145  
       4A    -11.094013     5A    -11.073040     6A    -11.071926  
       7A    -11.050619     8A     -1.152008     9A     -1.038422  
      10A     -0.939275    11A     -0.799826    12A     -0.782795  
      13A     -0.664550    14A     -0.511797    15A     -0.502551  
      16A     -0.482111    17A     -0.420589    18A     -0.408932  
      19A     -0.408601    20A     -0.405844    21A     -0.382255  
      22A     -0.351105    23A     -0.346716    24A     -0.335763  
      25A     -0.323382    26A     -0.303875    27A     -0.185541  
      28A     -0.174668    29A     -0.162525  

    Virtual:                                                              

      30A      0.304545    31A      0.338518    32A      0.349532  
      33A      0.353520    34A      0.380142    35A      0.389279  
      36A      0.400503    37A      0.420572    38A      0.444252  
      39A      0.464895    40A      0.474719    41A      0.481245  
      42A      0.517358    43A      0.558076    44A      0.571650  
      45A      0.681216    46A      0.692651    47A      0.715151  
      48A      0.751298    49A      0.763090    50A      0.776622  
      51A      0.803923    52A      0.831571    53A      0.871043  
      54A      0.920271    55A      0.954207    56A      0.964266  
      57A      0.976004    58A      0.995683    59A      1.008600  
      60A      1.013577    61A      1.023861    62A      1.025356  
      63A      1.031155    64A      1.039157    65A      1.050730  
      66A      1.059550    67A      1.069390    68A      1.088300  
      69A      1.099367    70A      1.130099    71A      1.136161  
      72A      1.151801    73A      1.233631    74A      1.248326  
      75A      1.271479    76A      1.331510    77A      1.343353  
      78A      1.368737    79A      1.424374    80A      1.520357  
      81A      1.562196    82A      1.566579    83A      1.575923  
      84A      1.592279    85A      1.600613    86A      1.659720  
      87A      1.676981    88A      1.716216    89A      1.740886  
      90A      1.748694    91A      1.761487    92A      1.781604  
      93A      1.841912    94A      1.854428    95A      1.875989  
      96A      1.884057    97A      1.931631    98A      1.983689  
      99A      2.012579   100A      2.040518   101A      2.047142  
     102A      2.059914   103A      2.077007   104A      2.080094  
     105A      2.100338   106A      2.113911   107A      2.128944  
     108A      2.144011   109A      2.150087   110A      2.172278  
     111A      2.187189   112A      2.218235   113A      2.256304  
     114A      2.264187   115A      2.286339   116A      2.305346  
     117A      2.359899   118A      2.372429   119A      2.431618  
     120A      2.448457   121A      2.473264   122A      2.487828  
     123A      2.572701   124A      2.583501   125A      2.619574  
     126A      2.647791   127A      2.668827   128A      2.701487  
     129A      2.739298   130A      2.774650   131A      2.779957  
     132A      2.834072   133A      2.885628   134A      2.906605  
     135A      2.924376   136A      2.931805   137A      2.970353  
     138A      2.979302   139A      3.002354   140A      3.044469  
     141A      3.076909   142A      3.110197   143A      3.190589  
     144A      3.240609   145A      3.277511   146A      3.295412  
     147A      3.365861   148A      3.635135   149A      3.783909  
     150A      3.841465   151A      4.069155   152A      4.087819  
     153A      4.192315  

    Final Occupation by Irrep:
              A 
    DOCC [    29 ]

  @RHF Final Energy:  -345.49794280570796

   => Energetics <=

    Nuclear Repulsion Energy =            298.3106806331438747
    One-Electron Energy =               -1073.5882300557543658
    Two-Electron Energy =                 429.7796066169025266
    Total Energy =                       -345.4979428057079645

Computation Completed


Properties will be evaluated at   0.000000,   0.000000,   0.000000 [a0]

Properties computed using the SCF density matrix

  Nuclear Dipole Moment: [e a0]
     X:    10.5283      Y:     3.4450      Z:    -3.6796

  Electronic Dipole Moment: [e a0]
     X:    -8.6224      Y:    -2.8010      Z:     2.4651

  Dipole Moment: [e a0]
     X:     1.9059      Y:     0.6440      Z:    -1.2145     Total:     2.3499

  Dipole Moment: [D]
     X:     4.8444      Y:     1.6369      Z:    -3.0869     Total:     5.9730


*** tstop() called on ds3 at Mon Apr 27 22:18:20 2020
Module time:
	user time   =      26.04 seconds =       0.43 minutes
	system time =      10.86 seconds =       0.18 minutes
	total time  =         36 seconds =       0.60 minutes
Total time:
	user time   =      26.04 seconds =       0.43 minutes
	system time =      10.86 seconds =       0.18 minutes
	total time  =         36 seconds =       0.60 minutes
                                     G D M A

                                 by Anthony Stone

                           version 2.2.06, 22 June 2011

               Distributed Multipoles from Gaussian wavefunctions


Starting at 22:18:20 on 27 Apr 2020 


Using SCF density matrix from file ./SSI/SSI-133PRO-151ASP-1-dimer.test.6619.fchk


                         Distributed Multipole Analysis

Standard DMA

Positions and radii in angstrom
Multipole moments in atomic units, ea_0^k for rank k

C          x =  1.706962  y =  1.030287  z = -0.402705 angstrom
           Maximum rank =  0   Radius =  0.650 angstrom
                   Q00  =  -0.060714

C          x =  2.625962  y =  2.024287  z =  0.263295 angstrom
           Maximum rank =  0   Radius =  0.650 angstrom
                   Q00  =  -0.234888

C          x =  2.010962  y = -0.235713  z =  0.366295 angstrom
           Maximum rank =  0   Radius =  0.650 angstrom
                   Q00  =  -0.170020

H          x =  1.934962  y =  0.921287  z = -1.463705 angstrom
           Maximum rank =  0   Radius =  0.325 angstrom
                   Q00  =   0.010768

H          x =  0.680962  y =  1.351287  z = -0.264705 angstrom
           Maximum rank =  0   Radius =  0.325 angstrom
                   Q00  =   0.104397

H          x =  3.649962  y =  1.900287  z = -0.092705 angstrom
           Maximum rank =  0   Radius =  0.325 angstrom
                   Q00  =   0.041113

H          x =  2.261962  y =  3.033287  z =  0.068295 angstrom
           Maximum rank =  0   Radius =  0.325 angstrom
                   Q00  =   0.060324

H          x =  2.974962  y = -0.632713  z =  0.040295 angstrom
           Maximum rank =  0   Radius =  0.325 angstrom
                   Q00  =   0.017831

H          x =  1.236962  y = -0.989713  z =  0.237295 angstrom
           Maximum rank =  0   Radius =  0.325 angstrom
                   Q00  =   0.108383

H          x =  2.553992  y =  1.742397  z =  1.324124 angstrom
           Maximum rank =  0   Radius =  0.325 angstrom
                   Q00  =   0.059390

H          x =  2.071452  y =  0.117867  z =  1.406160 angstrom
           Maximum rank =  0   Radius =  0.325 angstrom
                   Q00  =   0.041925

C          x = -1.941038  y = -1.147713  z = -1.386705 angstrom
           Maximum rank =  0   Radius =  0.650 angstrom
                   Q00  =  -0.285343

C          x = -1.563038  y = -0.674713  z =  0.008295 angstrom
           Maximum rank =  0   Radius =  0.650 angstrom
                   Q00  =   0.968367

O          x = -1.300038  y = -1.533713  z =  0.881295 angstrom
           Maximum rank =  0   Radius =  0.650 angstrom
                   Q00  =  -0.927596

O          x = -1.539038  y =  0.554287  z =  0.230295 angstrom
           Maximum rank =  0   Radius =  0.650 angstrom
                   Q00  =  -0.927633

H          x = -1.427038  y = -0.537713  z = -2.130705 angstrom
           Maximum rank =  0   Radius =  0.325 angstrom
                   Q00  =   0.061714

H          x = -3.006038  y = -1.021713  z = -1.500705 angstrom
           Maximum rank =  0   Radius =  0.325 angstrom
                   Q00  =   0.080555

H          x = -1.687028  y = -2.204770  z = -1.554366 angstrom
           Maximum rank =  0   Radius =  0.325 angstrom
                   Q00  =   0.051426

Total multipoles referred to origin at
           x =   0.000000,  y =    0.000000,  z =    0.000000 angstrom
                   Q00  =  -1.000000

Finished at 22:18:20 on 27 Apr 2020 

  DMA results are available in the Python driver through the
	  variable('DMA DISTRIBUTED MULTIPOLES')
  and
	  variable('DMA TOTAL MULTIPOLES')
  commands.


    Psi4 stopped on: Monday, 27 April 2020 10:18PM
    Psi4 wall time for execution: 0:00:36.33

*** Psi4 exiting successfully. Buy a developer a beer!
