
    -----------------------------------------------------------------------
          Psi4: An Open-Source Ab Initio Electronic Structure Package
                               Psi4 1.3.2 release

                         Git: Rev {HEAD} ecbda83 


    R. M. Parrish, L. A. Burns, D. G. A. Smith, A. C. Simmonett,
    A. E. DePrince III, E. G. Hohenstein, U. Bozkaya, A. Yu. Sokolov,
    R. Di Remigio, R. M. Richard, J. F. Gonthier, A. M. James,
    H. R. McAlexander, A. Kumar, M. Saitow, X. Wang, B. P. Pritchard,
    P. Verma, H. F. Schaefer III, K. Patkowski, R. A. King, E. F. Valeev,
    F. A. Evangelista, J. M. Turney, T. D. Crawford, and C. D. Sherrill,
    J. Chem. Theory Comput. 13(7) pp 3185--3197 (2017).
    (doi: 10.1021/acs.jctc.7b00174)


                         Additional Contributions by
    P. Kraus, H. Kruse, M. H. Lechner, M. C. Schieber, R. A. Shaw,
    A. Alenaizan, R. Galvelis, Z. L. Glick, S. Lehtola, and J. P. Misiewicz

    -----------------------------------------------------------------------


    Psi4 started on: Monday, 27 April 2020 11:06PM

    Process ID: 1069
    Host:       ds3
    PSIDATADIR: /theoryfs2/ds/metcalf/miniconda2/envs/tf2gpu/share/psi4
    Memory:     500.0 MiB
    Threads:    1
    
  ==> Input File <==

--------------------------------------------------------------------------
import numpy as np
set {scf_type pk
basis cc-pvdz
d_convergence 10
gdma_switch   0
gdma_limit    0
gdma_origin   [ 0.0,  0.0,  0.0 ]
}
molecule test {
    units Angstrom
    -1 1
    --
    -1 1
    C                2.131519684513167     1.863502475866626     2.375181651514261
    C                0.601519684513168     1.723502475866626     2.385181651514261
    O                0.042519684513168     0.817502475866626     3.067181651514261
    O               -0.038480315486832     2.537502475866626     1.677181651514261
    H                2.412519684513168     2.911502475866626     2.493181651514261
    H                2.491519684513167     1.523502475866626     1.402181651514261
    H                2.618779684513167     1.266282475866626     3.159976651514262
    C                0.625519684513167    -1.000497524133374     0.021181651514261
    C                0.507519684513168    -2.362497524133374     0.730181651514261
    C               -0.222480315486832    -0.860497524133374    -1.219818348485739
    C               -1.356480315486832    -0.135497524133374    -1.439818348485739
    C               -0.844480315486832    -1.171497524133374    -3.309818348485739
    N                0.074519684513168    -1.507497524133373    -2.406818348485739
    N               -1.725480315486833    -0.348497524133374    -2.755818348485739
    H                0.329519684513168    -0.218497524133374     0.708181651514261
    H                1.663519684513168    -0.824497524133374    -0.260818348485739
    H                0.826519684513167    -3.118497524133374     0.020181651514261
    H               -1.860480315486832     0.492502475866626    -0.716818348485739
    H               -0.904480315486832    -1.511497524133374    -4.315818348485738
    H               -2.519480315486832     0.068502475866626    -3.231818348485739
    H               -0.539450315486832    -2.525597524133374     1.025558651514261
    H                1.179189684513168    -2.381507524133374     1.601099651514261

}
e, wfn = energy('scf', return_wfn=True)
gdma(wfn)
dmavals = variable('DMA DISTRIBUTED MULTIPOLES')
charges = np.array(dmavals)
print(charges)
np.save('SSI-002ASP-145HIE-1-dimer.npy', np.array(charges))--------------------------------------------------------------------------

*** tstart() called on ds3
*** at Mon Apr 27 23:06:25 2020

   => Loading Basis Set <=

    Name: CC-PVDZ
    Role: ORBITAL
    Keyword: BASIS
    atoms 1-2, 8-12  entry C          line   138 file /theoryfs2/ds/metcalf/miniconda2/envs/tf2gpu/share/psi4/basis/cc-pvdz.gbs 
    atoms 3-4        entry O          line   198 file /theoryfs2/ds/metcalf/miniconda2/envs/tf2gpu/share/psi4/basis/cc-pvdz.gbs 
    atoms 5-7, 15-22 entry H          line    22 file /theoryfs2/ds/metcalf/miniconda2/envs/tf2gpu/share/psi4/basis/cc-pvdz.gbs 
    atoms 13-14      entry N          line   168 file /theoryfs2/ds/metcalf/miniconda2/envs/tf2gpu/share/psi4/basis/cc-pvdz.gbs 


         ---------------------------------------------------------
                                   SCF
               by Justin Turney, Rob Parrish, Andy Simmonett
                          and Daniel G. A. Smith
                              RHF Reference
                        1 Threads,    500 MiB Core
         ---------------------------------------------------------

  ==> Geometry <==

    Molecular point group: c1
    Full point group: C1

    Geometry (in Angstrom), charge = -1, multiplicity = 1:

       Center              X                  Y                   Z               Mass       
    ------------   -----------------  -----------------  -----------------  -----------------
         C            2.131519684513     1.863502475867     2.375181651514    12.000000000000
         C            0.601519684513     1.723502475867     2.385181651514    12.000000000000
         O            0.042519684513     0.817502475867     3.067181651514    15.994914619570
         O           -0.038480315487     2.537502475867     1.677181651514    15.994914619570
         H            2.412519684513     2.911502475867     2.493181651514     1.007825032230
         H            2.491519684513     1.523502475867     1.402181651514     1.007825032230
         H            2.618779684513     1.266282475867     3.159976651514     1.007825032230
         C            0.625519684513    -1.000497524133     0.021181651514    12.000000000000
         C            0.507519684513    -2.362497524133     0.730181651514    12.000000000000
         C           -0.222480315487    -0.860497524133    -1.219818348486    12.000000000000
         C           -1.356480315487    -0.135497524133    -1.439818348486    12.000000000000
         C           -0.844480315487    -1.171497524133    -3.309818348486    12.000000000000
         N            0.074519684513    -1.507497524133    -2.406818348486    14.003074004430
         N           -1.725480315487    -0.348497524133    -2.755818348486    14.003074004430
         H            0.329519684513    -0.218497524133     0.708181651514     1.007825032230
         H            1.663519684513    -0.824497524133    -0.260818348486     1.007825032230
         H            0.826519684513    -3.118497524133     0.020181651514     1.007825032230
         H           -1.860480315487     0.492502475867    -0.716818348486     1.007825032230
         H           -0.904480315487    -1.511497524133    -4.315818348486     1.007825032230
         H           -2.519480315487     0.068502475867    -3.231818348486     1.007825032230
         H           -0.539450315487    -2.525597524133     1.025558651514     1.007825032230
         H            1.179189684513    -2.381507524133     1.601099651514     1.007825032230

  Running in c1 symmetry.

  Rotational constants: A =      0.05972  B =      0.01555  C =      0.01382 [cm^-1]
  Rotational constants: A =   1790.33909  B =    466.11393  C =    414.16660 [MHz]
  Nuclear repulsion =  571.926966434707424

  Charge       = -1
  Multiplicity = 1
  Electrons    = 84
  Nalpha       = 42
  Nbeta        = 42

  ==> Algorithm <==

  SCF Algorithm Type is PK.
  DIIS enabled.
  MOM disabled.
  Fractional occupation disabled.
  Guess Type is SAD.
  Energy threshold   = 1.00e-06
  Density threshold  = 1.00e-10
  Integral threshold = 0.00e+00

  ==> Primary Basis <==

  Basis Set: CC-PVDZ
    Blend: CC-PVDZ
    Number of shells: 99
    Number of basis function: 209
    Number of Cartesian functions: 220
    Spherical Harmonics?: true
    Max angular momentum: 2

  ==> Pre-Iterations <==

   -------------------------------------------------------
    Irrep   Nso     Nmo     Nalpha   Nbeta   Ndocc  Nsocc
   -------------------------------------------------------
     A        209     209       0       0       0       0
   -------------------------------------------------------
    Total     209     209      42      42      42       0
   -------------------------------------------------------

  ==> Integral Setup <==

  Using integral reordering PK algorithm.
  Sizing the integral batches needed.
  Building batch lookup table.
   Calculation information:
      Number of atoms:                  22
      Number of AO shells:              99
      Number of primitives:            297
      Number of atomic orbitals:       220
      Number of basis functions:       209

      Integral cutoff                 1.00e-12
      Number of threads:                 1

	Batch   1 pq = [       0,    9405] index = [             0,44231715] size =     44231715
	Batch   2 pq = [    9405,   13301] index = [      44231715,88464951] size =     44233236
	Batch   3 pq = [   13301,   16290] index = [      88464951,132690195] size =     44225244
	Batch   4 pq = [   16290,   18810] index = [     132690195,176917455] size =     44227260
	Batch   5 pq = [   18810,   21030] index = [     176917455,221140965] size =     44223510
	Batch   6 pq = [   21030,   21945] index = [     221140965,240802485] size =     19661520
  Task number: 22
  Buffer size: 11059200
  Buffer per thread: 2
  We computed 10129692 shell quartets total.
  Whereas there are 12253725 unique shell quartets.

  ==> DiskJK: Disk-Based J/K Matrices <==

    J tasked:                  Yes
    K tasked:                  Yes
    wK tasked:                  No
    Memory [MiB]:              375
    Schwarz Cutoff:          1E-12

    OpenMP threads:              1

  Minimum eigenvalue in the overlap matrix is 1.1759085168E-03.
  Using Symmetric Orthogonalization.

  SCF Guess: Superposition of Atomic Densities via on-the-fly atomic UHF.

  ==> Iterations <==

                        Total Energy        Delta E     RMS |[F,P]|

   @RHF iter SAD:  -528.60065112754467   -5.28601e+02   0.00000e+00 
   @RHF iter   1:  -529.80260200995133   -1.20195e+00   3.90630e-03 DIIS
   @RHF iter   2:  -530.06285286772618   -2.60251e-01   2.26286e-03 DIIS
   @RHF iter   3:  -530.14893576611121   -8.60829e-02   3.85936e-04 DIIS
   @RHF iter   4:  -530.15310523539631   -4.16947e-03   1.56103e-04 DIIS
   @RHF iter   5:  -530.15377030329955   -6.65068e-04   3.26925e-05 DIIS
   @RHF iter   6:  -530.15380584296713   -3.55397e-05   1.58035e-05 DIIS
   @RHF iter   7:  -530.15381363315976   -7.79019e-06   3.96725e-06 DIIS
   @RHF iter   8:  -530.15381476810103   -1.13494e-06   1.83208e-06 DIIS
   @RHF iter   9:  -530.15381501364448   -2.45543e-07   7.18914e-07 DIIS
   @RHF iter  10:  -530.15381505894879   -4.53043e-08   2.33043e-07 DIIS
   @RHF iter  11:  -530.15381506335279   -4.40400e-09   7.19511e-08 DIIS
   @RHF iter  12:  -530.15381506375570   -4.02906e-10   3.21084e-08 DIIS
   @RHF iter  13:  -530.15381506381527   -5.95719e-11   9.34618e-09 DIIS
   @RHF iter  14:  -530.15381506382107   -5.79803e-12   3.89356e-09 DIIS
   @RHF iter  15:  -530.15381506382471   -3.63798e-12   1.56582e-09 DIIS
   @RHF iter  16:  -530.15381506382391    7.95808e-13   6.03225e-10 DIIS
   @RHF iter  17:  -530.15381506382130    2.61480e-12   2.72138e-10 DIIS
   @RHF iter  18:  -530.15381506382528   -3.97904e-12   8.15633e-11 DIIS
  Energy and wave function converged.


  ==> Post-Iterations <==

    Orbital Energies [Eh]
    ---------------------

    Doubly Occupied:                                                      

       1A    -20.263217     2A    -20.260925     3A    -15.522781  
       4A    -15.430420     5A    -11.193130     6A    -11.142631  
       7A    -11.130577     8A    -11.121318     9A    -11.099075  
      10A    -11.094925    11A    -11.053521    12A     -1.238934  
      13A     -1.145721    14A     -1.051991    15A     -1.033647  
      16A     -0.932027    17A     -0.873139    18A     -0.795667  
      19A     -0.742381    20A     -0.719004    21A     -0.655438  
      22A     -0.627260    23A     -0.513482    24A     -0.501744  
      25A     -0.498646    26A     -0.488954    27A     -0.469358  
      28A     -0.450824    29A     -0.412113    30A     -0.407051  
      31A     -0.401713    32A     -0.390615    33A     -0.373234  
      34A     -0.357712    35A     -0.342753    36A     -0.310125  
      37A     -0.301263    38A     -0.276169    39A     -0.202510  
      40A     -0.184345    41A     -0.173585    42A     -0.162158  

    Virtual:                                                              

      43A      0.260214    44A      0.287333    45A      0.307694  
      46A      0.309240    47A      0.343244    48A      0.350990  
      49A      0.360601    50A      0.371288    51A      0.393956  
      52A      0.397175    53A      0.413175    54A      0.425858  
      55A      0.460327    56A      0.475406    57A      0.490117  
      58A      0.501699    59A      0.528975    60A      0.553447  
      61A      0.569924    62A      0.582788    63A      0.601995  
      64A      0.691277    65A      0.714210    66A      0.722275  
      67A      0.744671    68A      0.754978    69A      0.762313  
      70A      0.773164    71A      0.791827    72A      0.804078  
      73A      0.814457    74A      0.846921    75A      0.870139  
      76A      0.875096    77A      0.887158    78A      0.918802  
      79A      0.937235    80A      0.953215    81A      0.977233  
      82A      0.989412    83A      0.999693    84A      1.007676  
      85A      1.018540    86A      1.022197    87A      1.027290  
      88A      1.035235    89A      1.048936    90A      1.051680  
      91A      1.060560    92A      1.079449    93A      1.083387  
      94A      1.091513    95A      1.116809    96A      1.130032  
      97A      1.143336    98A      1.148105    99A      1.194907  
     100A      1.201114   101A      1.216808   102A      1.231936  
     103A      1.245636   104A      1.272788   105A      1.305103  
     106A      1.332032   107A      1.345657   108A      1.364519  
     109A      1.392632   110A      1.396608   111A      1.417868  
     112A      1.428060   113A      1.433876   114A      1.509375  
     115A      1.515395   116A      1.524195   117A      1.555520  
     118A      1.562122   119A      1.580230   120A      1.587478  
     121A      1.600942   122A      1.623435   123A      1.648736  
     124A      1.668495   125A      1.675931   126A      1.711645  
     127A      1.726630   128A      1.733286   129A      1.783118  
     130A      1.809118   131A      1.832419   132A      1.844231  
     133A      1.850602   134A      1.864980   135A      1.895165  
     136A      1.938959   137A      1.942921   138A      1.986577  
     139A      2.002027   140A      2.026232   141A      2.030923  
     142A      2.055092   143A      2.067360   144A      2.069517  
     145A      2.073121   146A      2.089505   147A      2.104472  
     148A      2.106550   149A      2.117451   150A      2.128720  
     151A      2.143709   152A      2.163232   153A      2.175695  
     154A      2.213122   155A      2.218879   156A      2.231075  
     157A      2.257261   158A      2.270965   159A      2.292943  
     160A      2.320439   161A      2.351293   162A      2.364633  
     163A      2.392299   164A      2.422339   165A      2.429086  
     166A      2.438237   167A      2.488849   168A      2.511983  
     169A      2.543384   170A      2.555215   171A      2.587691  
     172A      2.617549   173A      2.650047   174A      2.656625  
     175A      2.685734   176A      2.708603   177A      2.712514  
     178A      2.728820   179A      2.767159   180A      2.823723  
     181A      2.840915   182A      2.864193   183A      2.898385  
     184A      2.910407   185A      2.918380   186A      2.946146  
     187A      2.968662   188A      2.977528   189A      2.992318  
     190A      3.007847   191A      3.022562   192A      3.051775  
     193A      3.072816   194A      3.140918   195A      3.203459  
     196A      3.240745   197A      3.271300   198A      3.278501  
     199A      3.294271   200A      3.363559   201A      3.376193  
     202A      3.572966   203A      3.628384   204A      3.761350  
     205A      3.815226   206A      3.888566   207A      4.056805  
     208A      4.069707   209A      4.176341  

    Final Occupation by Irrep:
              A 
    DOCC [    42 ]

  @RHF Final Energy:  -530.15381506382528

   => Energetics <=

    Nuclear Repulsion Energy =            571.9269664347074240
    One-Electron Energy =               -1871.4693893659366495
    Two-Electron Energy =                 769.3886078674040618
    Total Energy =                       -530.1538150638252773

Computation Completed


Properties will be evaluated at   0.000000,   0.000000,   0.000000 [a0]

Properties computed using the SCF density matrix

  Nuclear Dipole Moment: [e a0]
     X:     5.3462      Y:    -4.0263      Z:     1.8050

  Electronic Dipole Moment: [e a0]
     X:    -6.2224      Y:     2.0772      Z:    -5.9766

  Dipole Moment: [e a0]
     X:    -0.8762      Y:    -1.9491      Z:    -4.1716     Total:     4.6871

  Dipole Moment: [D]
     X:    -2.2271      Y:    -4.9540      Z:   -10.6031     Total:    11.9134


*** tstop() called on ds3 at Mon Apr 27 23:08:55 2020
Module time:
	user time   =     105.56 seconds =       1.76 minutes
	system time =      51.27 seconds =       0.85 minutes
	total time  =        150 seconds =       2.50 minutes
Total time:
	user time   =     105.56 seconds =       1.76 minutes
	system time =      51.27 seconds =       0.85 minutes
	total time  =        150 seconds =       2.50 minutes
                                     G D M A

                                 by Anthony Stone

                           version 2.2.06, 22 June 2011

               Distributed Multipoles from Gaussian wavefunctions


Starting at 23:8:55 on 27 Apr 2020  


Using SCF density matrix from file ./SSI/SSI-002ASP-145HIE-1-dimer.test.1069.fchk


                         Distributed Multipole Analysis

Standard DMA

Positions and radii in angstrom
Multipole moments in atomic units, ea_0^k for rank k

C          x =  2.131520  y =  1.863502  z =  2.375182 angstrom
           Maximum rank =  0   Radius =  0.650 angstrom
                   Q00  =  -0.287514

C          x =  0.601520  y =  1.723502  z =  2.385182 angstrom
           Maximum rank =  0   Radius =  0.650 angstrom
                   Q00  =   0.960016

O          x =  0.042520  y =  0.817502  z =  3.067182 angstrom
           Maximum rank =  0   Radius =  0.650 angstrom
                   Q00  =  -0.928340

O          x = -0.038480  y =  2.537502  z =  1.677182 angstrom
           Maximum rank =  0   Radius =  0.650 angstrom
                   Q00  =  -0.925299

H          x =  2.412520  y =  2.911502  z =  2.493182 angstrom
           Maximum rank =  0   Radius =  0.325 angstrom
                   Q00  =   0.066008

H          x =  2.491520  y =  1.523502  z =  1.402182 angstrom
           Maximum rank =  0   Radius =  0.325 angstrom
                   Q00  =   0.076786

H          x =  2.618780  y =  1.266282  z =  3.159977 angstrom
           Maximum rank =  0   Radius =  0.325 angstrom
                   Q00  =   0.047585

C          x =  0.625520  y = -1.000498  z =  0.021182 angstrom
           Maximum rank =  0   Radius =  0.650 angstrom
                   Q00  =  -0.029534

C          x =  0.507520  y = -2.362498  z =  0.730182 angstrom
           Maximum rank =  0   Radius =  0.650 angstrom
                   Q00  =  -0.219082

C          x = -0.222480  y = -0.860498  z = -1.219818 angstrom
           Maximum rank =  0   Radius =  0.650 angstrom
                   Q00  =   0.191294

C          x = -1.356480  y = -0.135498  z = -1.439818 angstrom
           Maximum rank =  0   Radius =  0.650 angstrom
                   Q00  =  -0.007970

C          x = -0.844480  y = -1.171498  z = -3.309818 angstrom
           Maximum rank =  0   Radius =  0.650 angstrom
                   Q00  =   0.449918

N          x =  0.074520  y = -1.507498  z = -2.406818 angstrom
           Maximum rank =  0   Radius =  0.650 angstrom
                   Q00  =  -0.773103

N          x = -1.725480  y = -0.348498  z = -2.755818 angstrom
           Maximum rank =  0   Radius =  0.650 angstrom
                   Q00  =  -0.464179

H          x =  0.329520  y = -0.218498  z =  0.708182 angstrom
           Maximum rank =  0   Radius =  0.325 angstrom
                   Q00  =   0.131515

H          x =  1.663520  y = -0.824498  z = -0.260818 angstrom
           Maximum rank =  0   Radius =  0.325 angstrom
                   Q00  =   0.060109

H          x =  0.826520  y = -3.118498  z =  0.020182 angstrom
           Maximum rank =  0   Radius =  0.325 angstrom
                   Q00  =   0.059007

H          x = -1.860480  y =  0.492502  z = -0.716818 angstrom
           Maximum rank =  0   Radius =  0.325 angstrom
                   Q00  =   0.123507

H          x = -0.904480  y = -1.511498  z = -4.315818 angstrom
           Maximum rank =  0   Radius =  0.325 angstrom
                   Q00  =   0.098315

H          x = -2.519480  y =  0.068502  z = -3.231818 angstrom
           Maximum rank =  0   Radius =  0.325 angstrom
                   Q00  =   0.205037

H          x = -0.539450  y = -2.525598  z =  1.025559 angstrom
           Maximum rank =  0   Radius =  0.325 angstrom
                   Q00  =   0.078867

H          x =  1.179190  y = -2.381508  z =  1.601100 angstrom
           Maximum rank =  0   Radius =  0.325 angstrom
                   Q00  =   0.087057

Total multipoles referred to origin at
           x =   0.000000,  y =    0.000000,  z =    0.000000 angstrom
                   Q00  =  -1.000000

Finished at 23:8:55 on 27 Apr 2020  

  DMA results are available in the Python driver through the
	  variable('DMA DISTRIBUTED MULTIPOLES')
  and
	  variable('DMA TOTAL MULTIPOLES')
  commands.


    Psi4 stopped on: Monday, 27 April 2020 11:08PM
    Psi4 wall time for execution: 0:02:30.64

*** Psi4 exiting successfully. Buy a developer a beer!
