
    -----------------------------------------------------------------------
          Psi4: An Open-Source Ab Initio Electronic Structure Package
                               Psi4 1.3.2 release

                         Git: Rev {HEAD} ecbda83 


    R. M. Parrish, L. A. Burns, D. G. A. Smith, A. C. Simmonett,
    A. E. DePrince III, E. G. Hohenstein, U. Bozkaya, A. Yu. Sokolov,
    R. Di Remigio, R. M. Richard, J. F. Gonthier, A. M. James,
    H. R. McAlexander, A. Kumar, M. Saitow, X. Wang, B. P. Pritchard,
    P. Verma, H. F. Schaefer III, K. Patkowski, R. A. King, E. F. Valeev,
    F. A. Evangelista, J. M. Turney, T. D. Crawford, and C. D. Sherrill,
    J. Chem. Theory Comput. 13(7) pp 3185--3197 (2017).
    (doi: 10.1021/acs.jctc.7b00174)


                         Additional Contributions by
    P. Kraus, H. Kruse, M. H. Lechner, M. C. Schieber, R. A. Shaw,
    A. Alenaizan, R. Galvelis, Z. L. Glick, S. Lehtola, and J. P. Misiewicz

    -----------------------------------------------------------------------


    Psi4 started on: Monday, 27 April 2020 06:50AM

    Process ID: 2921
    Host:       ds3
    PSIDATADIR: /theoryfs2/ds/metcalf/miniconda2/envs/tf2gpu/share/psi4
    Memory:     500.0 MiB
    Threads:    1
    
  ==> Input File <==

--------------------------------------------------------------------------
import numpy as np
set {scf_type pk
basis cc-pvdz
d_convergence 10
gdma_switch   0
gdma_limit    0
gdma_origin   [ 0.0,  0.0,  0.0 ]
}
molecule test {
    units Angstrom
    0 1
    --
    0 1
    C                0.231682696223104    -3.287241212764770     0.367505560763958
    C               -1.266317303776896    -3.557241212764769     0.578505560763958
    C                0.681682696223104    -3.393241212764770    -1.087494439236042
    H                0.490682696223104    -2.315241212764770     0.777505560763958
    H                0.823682696223104    -4.031241212764770     0.899505560763958
    H               -1.500317303776896    -4.523241212764769     0.130505560763958
    H                0.329682696223104    -2.540241212764769    -1.664494439236042
    H                1.770682696223104    -3.415241212764770    -1.107494439236042
    H                0.307682696223104    -4.318241212764770    -1.528494439236042
    H               -1.488517303776896    -3.608518212764769     1.654605560763958
    H               -1.872834303776896    -2.781848212764770     0.087685560763958
    C                1.071682696223104     1.369758787235230     2.244505560763958
    C                0.542682696223104     0.518758787235231    -0.065494439236042
    C                0.460682696223104     1.543758787235231     0.878505560763958
    C               -0.044317303776896     0.658758787235230    -1.326494439236042
    C               -0.723317303776896     1.824758787235230    -1.652494439236042
    C               -0.219317303776896     2.712758787235230     0.546505560763958
    C               -0.812317303776896     2.854758787235231    -0.716494439236042
    H                1.099682696223104    -0.374241212764769     0.164505560763958
    H                0.038682696223104    -0.137241212764769    -2.054494439236042
    H                1.321682696223104     2.348758787235230     2.642505560763958
    H                2.003682696223104     0.813758787235230     2.143505560763958
    H               -1.179317303776896     1.934758787235231    -2.627494439236042
    H               -0.304317303776896     3.512758787235231     1.267505560763958
    H               -1.340317303776896     3.763758787235230    -0.965494439236042
    H                0.418362696223104     0.840500787235230     2.953765560763958

}
e, wfn = energy('scf', return_wfn=True)
gdma(wfn)
dmavals = variable('DMA DISTRIBUTED MULTIPOLES')
charges = np.array(dmavals)
print(charges)
np.save('SSI-117ILE-142PHE-1-dimer.npy', np.array(charges))--------------------------------------------------------------------------

*** tstart() called on ds3
*** at Mon Apr 27 06:50:08 2020

   => Loading Basis Set <=

    Name: CC-PVDZ
    Role: ORBITAL
    Keyword: BASIS
    atoms 1-3, 12-18  entry C          line   138 file /theoryfs2/ds/metcalf/miniconda2/envs/tf2gpu/share/psi4/basis/cc-pvdz.gbs 
    atoms 4-11, 19-26 entry H          line    22 file /theoryfs2/ds/metcalf/miniconda2/envs/tf2gpu/share/psi4/basis/cc-pvdz.gbs 


         ---------------------------------------------------------
                                   SCF
               by Justin Turney, Rob Parrish, Andy Simmonett
                          and Daniel G. A. Smith
                              RHF Reference
                        1 Threads,    500 MiB Core
         ---------------------------------------------------------

  ==> Geometry <==

    Molecular point group: c1
    Full point group: C1

    Geometry (in Angstrom), charge = 0, multiplicity = 1:

       Center              X                  Y                   Z               Mass       
    ------------   -----------------  -----------------  -----------------  -----------------
         C            0.231682696223    -3.287241212765     0.367505560764    12.000000000000
         C           -1.266317303777    -3.557241212765     0.578505560764    12.000000000000
         C            0.681682696223    -3.393241212765    -1.087494439236    12.000000000000
         H            0.490682696223    -2.315241212765     0.777505560764     1.007825032230
         H            0.823682696223    -4.031241212765     0.899505560764     1.007825032230
         H           -1.500317303777    -4.523241212765     0.130505560764     1.007825032230
         H            0.329682696223    -2.540241212765    -1.664494439236     1.007825032230
         H            1.770682696223    -3.415241212765    -1.107494439236     1.007825032230
         H            0.307682696223    -4.318241212765    -1.528494439236     1.007825032230
         H           -1.488517303777    -3.608518212765     1.654605560764     1.007825032230
         H           -1.872834303777    -2.781848212765     0.087685560764     1.007825032230
         C            1.071682696223     1.369758787235     2.244505560764    12.000000000000
         C            0.542682696223     0.518758787235    -0.065494439236    12.000000000000
         C            0.460682696223     1.543758787235     0.878505560764    12.000000000000
         C           -0.044317303777     0.658758787235    -1.326494439236    12.000000000000
         C           -0.723317303777     1.824758787235    -1.652494439236    12.000000000000
         C           -0.219317303777     2.712758787235     0.546505560764    12.000000000000
         C           -0.812317303777     2.854758787235    -0.716494439236    12.000000000000
         H            1.099682696223    -0.374241212765     0.164505560764     1.007825032230
         H            0.038682696223    -0.137241212765    -2.054494439236     1.007825032230
         H            1.321682696223     2.348758787235     2.642505560764     1.007825032230
         H            2.003682696223     0.813758787235     2.143505560764     1.007825032230
         H           -1.179317303777     1.934758787235    -2.627494439236     1.007825032230
         H           -0.304317303777     3.512758787235     1.267505560764     1.007825032230
         H           -1.340317303777     3.763758787235    -0.965494439236     1.007825032230
         H            0.418362696223     0.840500787235     2.953765560764     1.007825032230

  Running in c1 symmetry.

  Rotational constants: A =      0.06004  B =      0.01852  C =      0.01594 [cm^-1]
  Rotational constants: A =   1800.08803  B =    555.08020  C =    477.95841 [MHz]
  Nuclear repulsion =  482.845786864909826

  Charge       = 0
  Multiplicity = 1
  Electrons    = 76
  Nalpha       = 38
  Nbeta        = 38

  ==> Algorithm <==

  SCF Algorithm Type is PK.
  DIIS enabled.
  MOM disabled.
  Fractional occupation disabled.
  Guess Type is SAD.
  Energy threshold   = 1.00e-06
  Density threshold  = 1.00e-10
  Integral threshold = 0.00e+00

  ==> Primary Basis <==

  Basis Set: CC-PVDZ
    Blend: CC-PVDZ
    Number of shells: 108
    Number of basis function: 220
    Number of Cartesian functions: 230
    Spherical Harmonics?: true
    Max angular momentum: 2

  ==> Pre-Iterations <==

   -------------------------------------------------------
    Irrep   Nso     Nmo     Nalpha   Nbeta   Ndocc  Nsocc
   -------------------------------------------------------
     A        220     220       0       0       0       0
   -------------------------------------------------------
    Total     220     220      38      38      38       0
   -------------------------------------------------------

  ==> Integral Setup <==

  Using integral reordering PK algorithm.
  Sizing the integral batches needed.
  Building batch lookup table.
   Calculation information:
      Number of atoms:                  26
      Number of AO shells:             108
      Number of primitives:            300
      Number of atomic orbitals:       230
      Number of basis functions:       220

      Integral cutoff                 1.00e-12
      Number of threads:                 1

	Batch   1 pq = [       0,    9405] index = [             0,44231715] size =     44231715
	Batch   2 pq = [    9405,   13301] index = [      44231715,88464951] size =     44233236
	Batch   3 pq = [   13301,   16290] index = [      88464951,132690195] size =     44225244
	Batch   4 pq = [   16290,   18810] index = [     132690195,176917455] size =     44227260
	Batch   5 pq = [   18810,   21030] index = [     176917455,221140965] size =     44223510
	Batch   6 pq = [   21030,   23037] index = [     221140965,265363203] size =     44222238
	Batch   7 pq = [   23037,   24310] index = [     265363203,295500205] size =     30137002
  Task number: 27
  Buffer size: 11059200
  Buffer per thread: 2
  We computed 15008452 shell quartets total.
  Whereas there are 17325441 unique shell quartets.

  ==> DiskJK: Disk-Based J/K Matrices <==

    J tasked:                  Yes
    K tasked:                  Yes
    wK tasked:                  No
    Memory [MiB]:              375
    Schwarz Cutoff:          1E-12

    OpenMP threads:              1

  Minimum eigenvalue in the overlap matrix is 3.0704818012E-04.
  Using Symmetric Orthogonalization.

  SCF Guess: Superposition of Atomic Densities via on-the-fly atomic UHF.

  ==> Iterations <==

                        Total Energy        Delta E     RMS |[F,P]|

   @RHF iter SAD:  -386.86140867395704   -3.86861e+02   0.00000e+00 
   @RHF iter   1:  -387.77242102427442   -9.11012e-01   2.74215e-03 DIIS
   @RHF iter   2:  -387.99057641696959   -2.18155e-01   1.14785e-03 DIIS
   @RHF iter   3:  -388.02531652583906   -3.47401e-02   2.49436e-04 DIIS
   @RHF iter   4:  -388.02818787335485   -2.87135e-03   5.09190e-05 DIIS
   @RHF iter   5:  -388.02827331210028   -8.54387e-05   1.61803e-05 DIIS
   @RHF iter   6:  -388.02828148078532   -8.16869e-06   4.77359e-06 DIIS
   @RHF iter   7:  -388.02828227520831   -7.94423e-07   1.16147e-06 DIIS
   @RHF iter   8:  -388.02828233072267   -5.55144e-08   2.64076e-07 DIIS
   @RHF iter   9:  -388.02828233626065   -5.53797e-09   1.05876e-07 DIIS
   @RHF iter  10:  -388.02828233724125   -9.80606e-10   4.97629e-08 DIIS
   @RHF iter  11:  -388.02828233755838   -3.17129e-10   2.24751e-08 DIIS
   @RHF iter  12:  -388.02828233762995   -7.15659e-11   1.02378e-08 DIIS
   @RHF iter  13:  -388.02828233764234   -1.23919e-11   3.90163e-09 DIIS
   @RHF iter  14:  -388.02828233764433   -1.98952e-12   1.02013e-09 DIIS
   @RHF iter  15:  -388.02828233764228    2.04636e-12   3.69865e-10 DIIS
   @RHF iter  16:  -388.02828233764325   -9.66338e-13   1.43876e-10 DIIS
   @RHF iter  17:  -388.02828233764455   -1.30740e-12   6.64026e-11 DIIS
  Energy and wave function converged.


  ==> Post-Iterations <==

    Orbital Energies [Eh]
    ---------------------

    Doubly Occupied:                                                      

       1A    -11.240845     2A    -11.236983     3A    -11.236096  
       4A    -11.231792     5A    -11.231657     6A    -11.230399  
       7A    -11.229224     8A    -11.218981     9A    -11.217171  
      10A    -11.215938    11A     -1.151144    12A     -1.052981  
      13A     -1.044701    14A     -1.009292    15A     -0.931691  
      16A     -0.925321    17A     -0.825937    18A     -0.796979  
      19A     -0.794366    20A     -0.691224    21A     -0.632460  
      22A     -0.630406    23A     -0.626140    24A     -0.594654  
      25A     -0.580551    26A     -0.577278    27A     -0.563091  
      28A     -0.550541    29A     -0.535898    30A     -0.533299  
      31A     -0.488155    32A     -0.486264    33A     -0.481458  
      34A     -0.471685    35A     -0.468851    36A     -0.464094  
      37A     -0.330416    38A     -0.322889  

    Virtual:                                                              

      39A      0.132842    40A      0.139817    41A      0.172203  
      42A      0.192753    43A      0.199181    44A      0.218184  
      45A      0.227553    46A      0.233227    47A      0.245960  
      48A      0.255773    49A      0.258507    50A      0.270993  
      51A      0.277544    52A      0.281033    53A      0.289476  
      54A      0.303697    55A      0.348984    56A      0.359446  
      57A      0.360674    58A      0.374947    59A      0.394902  
      60A      0.423108    61A      0.450572    62A      0.468528  
      63A      0.483686    64A      0.512224    65A      0.558748  
      66A      0.573469    67A      0.593737    68A      0.604239  
      69A      0.623103    70A      0.631327    71A      0.641253  
      72A      0.659071    73A      0.684727    74A      0.692027  
      75A      0.704281    76A      0.716383    77A      0.739257  
      78A      0.741485    79A      0.744877    80A      0.759560  
      81A      0.766993    82A      0.776516    83A      0.782458  
      84A      0.796123    85A      0.802662    86A      0.841874  
      87A      0.853464    88A      0.860100    89A      0.865585  
      90A      0.870083    91A      0.876371    92A      0.882754  
      93A      0.889753    94A      0.895822    95A      0.900172  
      96A      0.905034    97A      0.912303    98A      0.921224  
      99A      0.926541   100A      0.932355   101A      0.946907  
     102A      0.954742   103A      0.971336   104A      0.994743  
     105A      1.009041   106A      1.024072   107A      1.031536  
     108A      1.054681   109A      1.113560   110A      1.125372  
     111A      1.129774   112A      1.150292   113A      1.154285  
     114A      1.161110   115A      1.195521   116A      1.232439  
     117A      1.239350   118A      1.246168   119A      1.262399  
     120A      1.272016   121A      1.302508   122A      1.308387  
     123A      1.320307   124A      1.330662   125A      1.382385  
     126A      1.412865   127A      1.461524   128A      1.476523  
     129A      1.523914   130A      1.528192   131A      1.537421  
     132A      1.570000   133A      1.610250   134A      1.641867  
     135A      1.668857   136A      1.673627   137A      1.687890  
     138A      1.699846   139A      1.707858   140A      1.735441  
     141A      1.746065   142A      1.758387   143A      1.786576  
     144A      1.807004   145A      1.842108   146A      1.858437  
     147A      1.872362   148A      1.880218   149A      1.888655  
     150A      1.898347   151A      1.907826   152A      1.910702  
     153A      1.917731   154A      1.920257   155A      1.930880  
     156A      1.940769   157A      1.949968   158A      1.960793  
     159A      1.963402   160A      1.970164   161A      1.977351  
     162A      1.982009   163A      1.989161   164A      2.000781  
     165A      2.008344   166A      2.016369   167A      2.045095  
     168A      2.061236   169A      2.064854   170A      2.072655  
     171A      2.109115   172A      2.129543   173A      2.142123  
     174A      2.153673   175A      2.158902   176A      2.163717  
     177A      2.183236   178A      2.190049   179A      2.267068  
     180A      2.277812   181A      2.287068   182A      2.295934  
     183A      2.304561   184A      2.308451   185A      2.311615  
     186A      2.320237   187A      2.323273   188A      2.370657  
     189A      2.471534   190A      2.477871   191A      2.495304  
     192A      2.501449   193A      2.534944   194A      2.540473  
     195A      2.580243   196A      2.614920   197A      2.624569  
     198A      2.641011   199A      2.742610   200A      2.750715  
     201A      2.759393   202A      2.768751   203A      2.771187  
     204A      2.788110   205A      2.805082   206A      2.817455  
     207A      2.826248   208A      2.848459   209A      2.876607  
     210A      2.924756   211A      2.959916   212A      2.974016  
     213A      2.982929   214A      3.007918   215A      3.024154  
     216A      3.080351   217A      3.150532   218A      3.197838  
     219A      3.295502   220A      3.958729  

    Final Occupation by Irrep:
              A 
    DOCC [    38 ]

  @RHF Final Energy:  -388.02828233764455

   => Energetics <=

    Nuclear Repulsion Energy =            482.8457868649098259
    One-Electron Energy =               -1480.0464350600523176
    Two-Electron Energy =                 609.1723658574979936
    Total Energy =                       -388.0282823376445549

Computation Completed


Properties will be evaluated at   0.000000,   0.000000,   0.000000 [a0]

Properties computed using the SCF density matrix

  Nuclear Dipole Moment: [e a0]
     X:     0.8614      Y:   -13.9036      Z:     2.6002

  Electronic Dipole Moment: [e a0]
     X:    -0.8010      Y:    13.9051      Z:    -2.4656

  Dipole Moment: [e a0]
     X:     0.0604      Y:     0.0015      Z:     0.1346     Total:     0.1475

  Dipole Moment: [D]
     X:     0.1535      Y:     0.0038      Z:     0.3421     Total:     0.3750


*** tstop() called on ds3 at Mon Apr 27 06:52:38 2020
Module time:
	user time   =     105.79 seconds =       1.76 minutes
	system time =      49.14 seconds =       0.82 minutes
	total time  =        150 seconds =       2.50 minutes
Total time:
	user time   =     105.79 seconds =       1.76 minutes
	system time =      49.14 seconds =       0.82 minutes
	total time  =        150 seconds =       2.50 minutes
                                     G D M A

                                 by Anthony Stone

                           version 2.2.06, 22 June 2011

               Distributed Multipoles from Gaussian wavefunctions


Starting at 6:52:38 on 27 Apr 2020  


Using SCF density matrix from file ./SSI/SSI-117ILE-142PHE-1-dimer.test.2921.fchk


                         Distributed Multipole Analysis

Standard DMA

Positions and radii in angstrom
Multipole moments in atomic units, ea_0^k for rank k

C          x =  0.231683  y = -3.287241  z =  0.367506 angstrom
           Maximum rank =  0   Radius =  0.650 angstrom
                   Q00  =  -0.106655

C          x = -1.266317  y = -3.557241  z =  0.578506 angstrom
           Maximum rank =  0   Radius =  0.650 angstrom
                   Q00  =  -0.235384

C          x =  0.681683  y = -3.393241  z = -1.087494 angstrom
           Maximum rank =  0   Radius =  0.650 angstrom
                   Q00  =  -0.232619

H          x =  0.490683  y = -2.315241  z =  0.777506 angstrom
           Maximum rank =  0   Radius =  0.325 angstrom
                   Q00  =   0.050002

H          x =  0.823683  y = -4.031241  z =  0.899506 angstrom
           Maximum rank =  0   Radius =  0.325 angstrom
                   Q00  =   0.045771

H          x = -1.500317  y = -4.523241  z =  0.130506 angstrom
           Maximum rank =  0   Radius =  0.325 angstrom
                   Q00  =   0.074993

H          x =  0.329683  y = -2.540241  z = -1.664494 angstrom
           Maximum rank =  0   Radius =  0.325 angstrom
                   Q00  =   0.075303

H          x =  1.770683  y = -3.415241  z = -1.107494 angstrom
           Maximum rank =  0   Radius =  0.325 angstrom
                   Q00  =   0.080474

H          x =  0.307683  y = -4.318241  z = -1.528494 angstrom
           Maximum rank =  0   Radius =  0.325 angstrom
                   Q00  =   0.080111

H          x = -1.488517  y = -3.608518  z =  1.654606 angstrom
           Maximum rank =  0   Radius =  0.325 angstrom
                   Q00  =   0.085197

H          x = -1.872834  y = -2.781848  z =  0.087686 angstrom
           Maximum rank =  0   Radius =  0.325 angstrom
                   Q00  =   0.082709

C          x =  1.071683  y =  1.369759  z =  2.244506 angstrom
           Maximum rank =  0   Radius =  0.650 angstrom
                   Q00  =  -0.203907

C          x =  0.542683  y =  0.518759  z = -0.065494 angstrom
           Maximum rank =  0   Radius =  0.650 angstrom
                   Q00  =   0.002958

C          x =  0.460683  y =  1.543759  z =  0.878506 angstrom
           Maximum rank =  0   Radius =  0.650 angstrom
                   Q00  =  -0.101639

C          x = -0.044317  y =  0.658759  z = -1.326494 angstrom
           Maximum rank =  0   Radius =  0.650 angstrom
                   Q00  =  -0.083891

C          x = -0.723317  y =  1.824759  z = -1.652494 angstrom
           Maximum rank =  0   Radius =  0.650 angstrom
                   Q00  =  -0.076073

C          x = -0.219317  y =  2.712759  z =  0.546506 angstrom
           Maximum rank =  0   Radius =  0.650 angstrom
                   Q00  =  -0.088796

C          x = -0.812317  y =  2.854759  z = -0.716494 angstrom
           Maximum rank =  0   Radius =  0.650 angstrom
                   Q00  =  -0.060870

H          x =  1.099683  y = -0.374241  z =  0.164506 angstrom
           Maximum rank =  0   Radius =  0.325 angstrom
                   Q00  =   0.058285

H          x =  0.038683  y = -0.137241  z = -2.054494 angstrom
           Maximum rank =  0   Radius =  0.325 angstrom
                   Q00  =   0.064966

H          x =  1.321683  y =  2.348759  z =  2.642506 angstrom
           Maximum rank =  0   Radius =  0.325 angstrom
                   Q00  =   0.099032

H          x =  2.003683  y =  0.813759  z =  2.143506 angstrom
           Maximum rank =  0   Radius =  0.325 angstrom
                   Q00  =   0.097677

H          x = -1.179317  y =  1.934759  z = -2.627494 angstrom
           Maximum rank =  0   Radius =  0.325 angstrom
                   Q00  =   0.061800

H          x = -0.304317  y =  3.512759  z =  1.267506 angstrom
           Maximum rank =  0   Radius =  0.325 angstrom
                   Q00  =   0.058109

H          x = -1.340317  y =  3.763759  z = -0.965494 angstrom
           Maximum rank =  0   Radius =  0.325 angstrom
                   Q00  =   0.066257

H          x =  0.418363  y =  0.840501  z =  2.953766 angstrom
           Maximum rank =  0   Radius =  0.325 angstrom
                   Q00  =   0.106190

Total multipoles referred to origin at
           x =   0.000000,  y =    0.000000,  z =    0.000000 angstrom
                   Q00  =  -0.000000

Finished at 6:52:38 on 27 Apr 2020  

  DMA results are available in the Python driver through the
	  variable('DMA DISTRIBUTED MULTIPOLES')
  and
	  variable('DMA TOTAL MULTIPOLES')
  commands.


    Psi4 stopped on: Monday, 27 April 2020 06:52AM
    Psi4 wall time for execution: 0:02:30.38

*** Psi4 exiting successfully. Buy a developer a beer!
