
    -----------------------------------------------------------------------
          Psi4: An Open-Source Ab Initio Electronic Structure Package
                               Psi4 1.3.2 release

                         Git: Rev {HEAD} ecbda83 


    R. M. Parrish, L. A. Burns, D. G. A. Smith, A. C. Simmonett,
    A. E. DePrince III, E. G. Hohenstein, U. Bozkaya, A. Yu. Sokolov,
    R. Di Remigio, R. M. Richard, J. F. Gonthier, A. M. James,
    H. R. McAlexander, A. Kumar, M. Saitow, X. Wang, B. P. Pritchard,
    P. Verma, H. F. Schaefer III, K. Patkowski, R. A. King, E. F. Valeev,
    F. A. Evangelista, J. M. Turney, T. D. Crawford, and C. D. Sherrill,
    J. Chem. Theory Comput. 13(7) pp 3185--3197 (2017).
    (doi: 10.1021/acs.jctc.7b00174)


                         Additional Contributions by
    P. Kraus, H. Kruse, M. H. Lechner, M. C. Schieber, R. A. Shaw,
    A. Alenaizan, R. Galvelis, Z. L. Glick, S. Lehtola, and J. P. Misiewicz

    -----------------------------------------------------------------------


    Psi4 started on: Sunday, 26 April 2020 06:13PM

    Process ID: 26812
    Host:       ds3
    PSIDATADIR: /theoryfs2/ds/metcalf/miniconda2/envs/tf2gpu/share/psi4
    Memory:     500.0 MiB
    Threads:    1
    
  ==> Input File <==

--------------------------------------------------------------------------
import numpy as np
set {scf_type pk
basis cc-pvdz
d_convergence 10
gdma_switch   0
gdma_limit    0
gdma_origin   [ 0.0,  0.0,  0.0 ]
}
molecule test {
    units Angstrom
    0 1
    --
    0 1
    C               -2.282364501316338     0.957177816275159    -1.907388098492480
    C               -3.091364501316337     0.038177816275159    -2.791388098492480
    C               -2.348364501316337     0.697177816275159    -0.432388098492480
    C               -2.922364501316337     1.516177816275159     0.480611901507520
    C               -1.708364501316337    -0.368822183724841     0.325611901507520
    C               -1.926364501316337    -0.087822183724841     1.703611901507520
    C               -0.958364501316337    -1.516822183724841    -0.013388098492480
    C               -1.437364501316337    -0.906822183724841     2.713611901507520
    C               -0.470364501316337    -2.349822183724841     1.013611901507520
    C               -0.712364501316337    -2.035822183724842     2.358611901507520
    N               -2.671364501316337     1.068177816275159     1.762611901507520
    H               -1.257364501316337     0.941177816275159    -2.248388098492480
    H               -2.637364501316337     1.978177816275159    -2.057388098492480
    H               -4.078364501316337    -0.097822183724841    -2.354388098492480
    H               -3.448364501316338     2.424177816275159     0.224611901507520
    H               -2.872364501316337     1.606177816275159     2.608611901507520
    H               -0.749364501316337    -1.753822183724841    -1.043388098492480
    H               -1.645364501316337    -0.679822183724841     3.749611901507520
    H                0.099635498683663    -3.231822183724841     0.757611901507520
    H               -0.331364501316337    -2.687822183724841     3.131611901507520
    H               -2.580524501316337    -0.925052183724841    -2.937125098492480
    H               -3.190264501316337     0.544227816275159    -3.763055098492480
    C                1.527635498683663     1.120177816275159    -1.634388098492480
    C                1.739635498683663     0.653177816275159    -3.105388098492480
    C                2.532635498683663     0.565177816275159    -0.642388098492480
    C                2.329635498683663    -0.166822183724841     0.488611901507520
    C                4.499635498683663     0.137177816275159     0.254611901507520
    N                3.902635498683662     0.743177816275159    -0.777388098492480
    N                3.575635498683663    -0.422822183724841     1.031611901507520
    H                1.599635498683663     2.201177816275159    -1.604388098492480
    H                0.546635498683663     0.833177816275159    -1.276388098492480
    H                2.760635498683663     0.869177816275159    -3.418388098492480
    H                1.374635498683663    -0.460822183724841     0.894611901507520
    H                5.557635498683664     0.127177816275159     0.445611901507520
    H                3.743635498683663    -0.908822183724841     1.913611901507520
    H                1.015135498683663     1.176177816275159    -3.746920098492480
    H                1.558745498683663    -0.430692183724841    -3.155513098492480

}
e, wfn = energy('scf', return_wfn=True)
gdma(wfn)
dmavals = variable('DMA DISTRIBUTED MULTIPOLES')
charges = np.array(dmavals)
print(charges)
np.save('SSI-113TRP-124HIE-1-dimer.npy', np.array(charges))--------------------------------------------------------------------------

*** tstart() called on ds3
*** at Sun Apr 26 18:13:50 2020

   => Loading Basis Set <=

    Name: CC-PVDZ
    Role: ORBITAL
    Keyword: BASIS
    atoms 1-10, 23-27  entry C          line   138 file /theoryfs2/ds/metcalf/miniconda2/envs/tf2gpu/share/psi4/basis/cc-pvdz.gbs 
    atoms 11, 28-29    entry N          line   168 file /theoryfs2/ds/metcalf/miniconda2/envs/tf2gpu/share/psi4/basis/cc-pvdz.gbs 
    atoms 12-22, 30-37 entry H          line    22 file /theoryfs2/ds/metcalf/miniconda2/envs/tf2gpu/share/psi4/basis/cc-pvdz.gbs 


         ---------------------------------------------------------
                                   SCF
               by Justin Turney, Rob Parrish, Andy Simmonett
                          and Daniel G. A. Smith
                              RHF Reference
                        1 Threads,    500 MiB Core
         ---------------------------------------------------------

  ==> Geometry <==

    Molecular point group: c1
    Full point group: C1

    Geometry (in Angstrom), charge = 0, multiplicity = 1:

       Center              X                  Y                   Z               Mass       
    ------------   -----------------  -----------------  -----------------  -----------------
         C           -2.282364501316     0.957177816275    -1.907388098492    12.000000000000
         C           -3.091364501316     0.038177816275    -2.791388098492    12.000000000000
         C           -2.348364501316     0.697177816275    -0.432388098492    12.000000000000
         C           -2.922364501316     1.516177816275     0.480611901508    12.000000000000
         C           -1.708364501316    -0.368822183725     0.325611901508    12.000000000000
         C           -1.926364501316    -0.087822183725     1.703611901508    12.000000000000
         C           -0.958364501316    -1.516822183725    -0.013388098492    12.000000000000
         C           -1.437364501316    -0.906822183725     2.713611901508    12.000000000000
         C           -0.470364501316    -2.349822183725     1.013611901508    12.000000000000
         C           -0.712364501316    -2.035822183725     2.358611901508    12.000000000000
         N           -2.671364501316     1.068177816275     1.762611901508    14.003074004430
         H           -1.257364501316     0.941177816275    -2.248388098492     1.007825032230
         H           -2.637364501316     1.978177816275    -2.057388098492     1.007825032230
         H           -4.078364501316    -0.097822183725    -2.354388098492     1.007825032230
         H           -3.448364501316     2.424177816275     0.224611901508     1.007825032230
         H           -2.872364501316     1.606177816275     2.608611901508     1.007825032230
         H           -0.749364501316    -1.753822183725    -1.043388098492     1.007825032230
         H           -1.645364501316    -0.679822183725     3.749611901508     1.007825032230
         H            0.099635498684    -3.231822183725     0.757611901508     1.007825032230
         H           -0.331364501316    -2.687822183725     3.131611901508     1.007825032230
         H           -2.580524501316    -0.925052183725    -2.937125098492     1.007825032230
         H           -3.190264501316     0.544227816275    -3.763055098492     1.007825032230
         C            1.527635498684     1.120177816275    -1.634388098492    12.000000000000
         C            1.739635498684     0.653177816275    -3.105388098492    12.000000000000
         C            2.532635498684     0.565177816275    -0.642388098492    12.000000000000
         C            2.329635498684    -0.166822183725     0.488611901508    12.000000000000
         C            4.499635498684     0.137177816275     0.254611901508    12.000000000000
         N            3.902635498684     0.743177816275    -0.777388098492    14.003074004430
         N            3.575635498684    -0.422822183725     1.031611901508    14.003074004430
         H            1.599635498684     2.201177816275    -1.604388098492     1.007825032230
         H            0.546635498684     0.833177816275    -1.276388098492     1.007825032230
         H            2.760635498684     0.869177816275    -3.418388098492     1.007825032230
         H            1.374635498684    -0.460822183725     0.894611901508     1.007825032230
         H            5.557635498684     0.127177816275     0.445611901508     1.007825032230
         H            3.743635498684    -0.908822183725     1.913611901508     1.007825032230
         H            1.015135498684     1.176177816275    -3.746920098492     1.007825032230
         H            1.558745498684    -0.430692183725    -3.155513098492     1.007825032230

  Running in c1 symmetry.

  Rotational constants: A =      0.01741  B =      0.00958  C =      0.00730 [cm^-1]
  Rotational constants: A =    521.98112  B =    287.29123  C =    218.80000 [MHz]
  Nuclear repulsion = 1255.946855889359540

  Charge       = 0
  Multiplicity = 1
  Electrons    = 130
  Nalpha       = 65
  Nbeta        = 65

  ==> Algorithm <==

  SCF Algorithm Type is PK.
  DIIS enabled.
  MOM disabled.
  Fractional occupation disabled.
  Guess Type is SAD.
  Energy threshold   = 1.00e-06
  Density threshold  = 1.00e-10
  Integral threshold = 0.00e+00

  ==> Primary Basis <==

  Basis Set: CC-PVDZ
    Blend: CC-PVDZ
    Number of shells: 165
    Number of basis function: 347
    Number of Cartesian functions: 365
    Spherical Harmonics?: true
    Max angular momentum: 2

  ==> Pre-Iterations <==

   -------------------------------------------------------
    Irrep   Nso     Nmo     Nalpha   Nbeta   Ndocc  Nsocc
   -------------------------------------------------------
     A        347     347       0       0       0       0
   -------------------------------------------------------
    Total     347     347      65      65      65       0
   -------------------------------------------------------

  ==> Integral Setup <==

  Using Yoshimine PK algorithm.
  Sizing the integral batches needed.
  Building batch lookup table.
   Calculation information:
      Number of atoms:                  37
      Number of AO shells:             165
      Number of primitives:            491
      Number of atomic orbitals:       365
      Number of basis functions:       347

      Integral cutoff                 1.00e-12
      Number of threads:                 1

	Batch   1 pq = [       0,    9405] index = [             0,44231715] size =     44231715
	Batch   2 pq = [    9405,   13301] index = [      44231715,88464951] size =     44233236
	Batch   3 pq = [   13301,   16290] index = [      88464951,132690195] size =     44225244
	Batch   4 pq = [   16290,   18810] index = [     132690195,176917455] size =     44227260
	Batch   5 pq = [   18810,   21030] index = [     176917455,221140965] size =     44223510
	Batch   6 pq = [   21030,   23037] index = [     221140965,265363203] size =     44222238
	Batch   7 pq = [   23037,   24883] index = [     265363203,309594286] size =     44231083
	Batch   8 pq = [   24883,   26601] index = [     309594286,353819901] size =     44225615
	Batch   9 pq = [   26601,   28214] index = [     353819901,398029005] size =     44209104
	Batch  10 pq = [   28214,   29740] index = [     398029005,442248670] size =     44219665
	Batch  11 pq = [   29740,   31191] index = [     442248670,486454836] size =     44206166
	Batch  12 pq = [   31191,   32578] index = [     486454836,530679331] size =     44224495
	Batch  13 pq = [   32578,   33908] index = [     530679331,574893186] size =     44213855
	Batch  14 pq = [   33908,   35188] index = [     574893186,619115266] size =     44222080
	Batch  15 pq = [   35188,   36423] index = [     619115266,663335676] size =     44220410
	Batch  16 pq = [   36423,   37617] index = [     663335676,707538153] size =     44202477
	Batch  17 pq = [   37617,   38775] index = [     707538153,751769700] size =     44231547
	Batch  18 pq = [   38775,   39899] index = [     751769700,795985050] size =     44215350
	Batch  19 pq = [   39899,   40992] index = [     795985050,840192528] size =     44207478
	Batch  20 pq = [   40992,   42057] index = [     840192528,884416653] size =     44224125
	Batch  21 pq = [   42057,   43095] index = [     884416653,928611060] size =     44194407
	Batch  22 pq = [   43095,   44109] index = [     928611060,972823995] size =     44212935
	Batch  23 pq = [   44109,   45100] index = [     972823995,1017027550] size =     44203555
	Batch  24 pq = [   45100,   46070] index = [    1017027550,1061245485] size =     44217935
	Batch  25 pq = [   46070,   47020] index = [    1061245485,1105463710] size =     44218225
	Batch  26 pq = [   47020,   47951] index = [    1105463710,1149673176] size =     44209466
	Batch  27 pq = [   47951,   48864] index = [    1149673176,1193869680] size =     44196504
	Batch  28 pq = [   48864,   49761] index = [    1193869680,1238103441] size =     44233761
	Batch  29 pq = [   49761,   50642] index = [    1238103441,1282331403] size =     44227962
	Batch  30 pq = [   50642,   51508] index = [    1282331403,1326562786] size =     44231383
	Batch  31 pq = [   51508,   52359] index = [    1326562786,1370758620] size =     44195834
	Batch  32 pq = [   52359,   53197] index = [    1370758620,1414987003] size =     44228383
	Batch  33 pq = [   53197,   54022] index = [    1414987003,1459215253] size =     44228250
	Batch  34 pq = [   54022,   54834] index = [    1459215253,1503411195] size =     44195942
	Batch  35 pq = [   54834,   55634] index = [    1503411195,1547598795] size =     44187600
	Batch  36 pq = [   55634,   56423] index = [    1547598795,1591805676] size =     44206881
	Batch  37 pq = [   56423,   57201] index = [    1591805676,1636005801] size =     44200125
	Batch  38 pq = [   57201,   57969] index = [    1636005801,1680231465] size =     44225664
	Batch  39 pq = [   57969,   58727] index = [    1680231465,1724459628] size =     44228163
	Batch  40 pq = [   58727,   59475] index = [    1724459628,1768667550] size =     44207922
	Batch  41 pq = [   59475,   60214] index = [    1768667550,1812893005] size =     44225455
	Batch  42 pq = [   60214,   60378] index = [    1812893005,1822781631] size =      9888626
