
    -----------------------------------------------------------------------
          Psi4: An Open-Source Ab Initio Electronic Structure Package
                               Psi4 1.3.2 release

                         Git: Rev {HEAD} ecbda83 


    R. M. Parrish, L. A. Burns, D. G. A. Smith, A. C. Simmonett,
    A. E. DePrince III, E. G. Hohenstein, U. Bozkaya, A. Yu. Sokolov,
    R. Di Remigio, R. M. Richard, J. F. Gonthier, A. M. James,
    H. R. McAlexander, A. Kumar, M. Saitow, X. Wang, B. P. Pritchard,
    P. Verma, H. F. Schaefer III, K. Patkowski, R. A. King, E. F. Valeev,
    F. A. Evangelista, J. M. Turney, T. D. Crawford, and C. D. Sherrill,
    J. Chem. Theory Comput. 13(7) pp 3185--3197 (2017).
    (doi: 10.1021/acs.jctc.7b00174)


                         Additional Contributions by
    P. Kraus, H. Kruse, M. H. Lechner, M. C. Schieber, R. A. Shaw,
    A. Alenaizan, R. Galvelis, Z. L. Glick, S. Lehtola, and J. P. Misiewicz

    -----------------------------------------------------------------------


    Psi4 started on: Monday, 27 April 2020 08:00PM

    Process ID: 11961
    Host:       ds3
    PSIDATADIR: /theoryfs2/ds/metcalf/miniconda2/envs/tf2gpu/share/psi4
    Memory:     500.0 MiB
    Threads:    1
    
  ==> Input File <==

--------------------------------------------------------------------------
import numpy as np
set {scf_type pk
basis cc-pvdz
d_convergence 10
gdma_switch   0
gdma_limit    0
gdma_origin   [ 0.0,  0.0,  0.0 ]
}
molecule test {
    units Angstrom
    -1 1
    --
    -1 1
    C                2.334849868851609    -1.531924557333636    -0.804225677148396
    C                1.594849868851608    -2.767924557333636    -1.298225677148396
    H                2.772849868851608    -0.989924557333636    -1.643225677148396
    H                1.632849868851608    -0.882924557333636    -0.293225677148396
    H                3.115849868851608    -1.796924557333636    -0.091225677148396
    H                1.249849868851608    -3.296924557333636    -0.419225677148396
    H                2.266629868851609    -3.396194557333636    -1.901535677148396
    H                0.720379868851609    -2.464884557333636    -1.892755677148396
    C                0.063849868851609     0.848075442666364     1.075774322851604
    C               -0.279150131148391     2.079075442666364     1.914774322851604
    C               -0.985150131148392     0.563075442666364     0.006774322851604
    O               -1.071150131148392     1.340075442666364    -0.970225677148396
    O               -1.723150131148391    -0.436924557333636     0.146774322851604
    H                1.025849868851608     1.032075442666364     0.595774322851604
    H                0.167849868851609    -0.021924557333636     1.724774322851604
    H               -0.248150131148391     2.964075442666364     1.277774322851604
    H                0.443669868851609     2.184705442666364     2.737194322851604
    H               -1.296760131148392     1.975225442666364     2.319364322851603

}
e, wfn = energy('scf', return_wfn=True)
gdma(wfn)
dmavals = variable('DMA DISTRIBUTED MULTIPOLES')
charges = np.array(dmavals)
print(charges)
np.save('SSI-057VAL-084ASP-2-dimer.npy', np.array(charges))--------------------------------------------------------------------------

*** tstart() called on ds3
*** at Mon Apr 27 20:00:47 2020

   => Loading Basis Set <=

    Name: CC-PVDZ
    Role: ORBITAL
    Keyword: BASIS
    atoms 1-2, 9-11  entry C          line   138 file /theoryfs2/ds/metcalf/miniconda2/envs/tf2gpu/share/psi4/basis/cc-pvdz.gbs 
    atoms 3-8, 14-18 entry H          line    22 file /theoryfs2/ds/metcalf/miniconda2/envs/tf2gpu/share/psi4/basis/cc-pvdz.gbs 
    atoms 12-13      entry O          line   198 file /theoryfs2/ds/metcalf/miniconda2/envs/tf2gpu/share/psi4/basis/cc-pvdz.gbs 


         ---------------------------------------------------------
                                   SCF
               by Justin Turney, Rob Parrish, Andy Simmonett
                          and Daniel G. A. Smith
                              RHF Reference
                        1 Threads,    500 MiB Core
         ---------------------------------------------------------

  ==> Geometry <==

    Molecular point group: c1
    Full point group: C1

    Geometry (in Angstrom), charge = -1, multiplicity = 1:

       Center              X                  Y                   Z               Mass       
    ------------   -----------------  -----------------  -----------------  -----------------
         C            2.334849868852    -1.531924557334    -0.804225677148    12.000000000000
         C            1.594849868852    -2.767924557334    -1.298225677148    12.000000000000
         H            2.772849868852    -0.989924557334    -1.643225677148     1.007825032230
         H            1.632849868852    -0.882924557334    -0.293225677148     1.007825032230
         H            3.115849868852    -1.796924557334    -0.091225677148     1.007825032230
         H            1.249849868852    -3.296924557334    -0.419225677148     1.007825032230
         H            2.266629868852    -3.396194557334    -1.901535677148     1.007825032230
         H            0.720379868852    -2.464884557334    -1.892755677148     1.007825032230
         C            0.063849868852     0.848075442666     1.075774322852    12.000000000000
         C           -0.279150131148     2.079075442666     1.914774322852    12.000000000000
         C           -0.985150131148     0.563075442666     0.006774322852    12.000000000000
         O           -1.071150131148     1.340075442666    -0.970225677148    15.994914619570
         O           -1.723150131148    -0.436924557334     0.146774322852    15.994914619570
         H            1.025849868852     1.032075442666     0.595774322852     1.007825032230
         H            0.167849868852    -0.021924557334     1.724774322852     1.007825032230
         H           -0.248150131148     2.964075442666     1.277774322852     1.007825032230
         H            0.443669868852     2.184705442666     2.737194322852     1.007825032230
         H           -1.296760131148     1.975225442666     2.319364322852     1.007825032230

  Running in c1 symmetry.

  Rotational constants: A =      0.10359  B =      0.03459  C =      0.03032 [cm^-1]
  Rotational constants: A =   3105.62664  B =   1036.94776  C =    909.01855 [MHz]
  Nuclear repulsion =  292.695386886424785

  Charge       = -1
  Multiplicity = 1
  Electrons    = 58
  Nalpha       = 29
  Nbeta        = 29

  ==> Algorithm <==

  SCF Algorithm Type is PK.
  DIIS enabled.
  MOM disabled.
  Fractional occupation disabled.
  Guess Type is SAD.
  Energy threshold   = 1.00e-06
  Density threshold  = 1.00e-10
  Integral threshold = 0.00e+00

  ==> Primary Basis <==

  Basis Set: CC-PVDZ
    Blend: CC-PVDZ
    Number of shells: 75
    Number of basis function: 153
    Number of Cartesian functions: 160
    Spherical Harmonics?: true
    Max angular momentum: 2

  ==> Pre-Iterations <==

   -------------------------------------------------------
    Irrep   Nso     Nmo     Nalpha   Nbeta   Ndocc  Nsocc
   -------------------------------------------------------
     A        153     153       0       0       0       0
   -------------------------------------------------------
    Total     153     153      29      29      29       0
   -------------------------------------------------------

  ==> Integral Setup <==

  Using integral reordering PK algorithm.
  Sizing the integral batches needed.
  Building batch lookup table.
   Calculation information:
      Number of atoms:                  18
      Number of AO shells:              75
      Number of primitives:            209
      Number of atomic orbitals:       160
      Number of basis functions:       153

      Integral cutoff                 1.00e-12
      Number of threads:                 1

	Batch   1 pq = [       0,    9405] index = [             0,44231715] size =     44231715
	Batch   2 pq = [    9405,   11781] index = [      44231715,69401871] size =     25170156
  Task number: 7
  Buffer size: 11059200
  Buffer per thread: 2
  We computed 3510789 shell quartets total.
  Whereas there are 4062675 unique shell quartets.

  ==> DiskJK: Disk-Based J/K Matrices <==

    J tasked:                  Yes
    K tasked:                  Yes
    wK tasked:                  No
    Memory [MiB]:              375
    Schwarz Cutoff:          1E-12

    OpenMP threads:              1

  Minimum eigenvalue in the overlap matrix is 4.2209313596E-03.
  Using Symmetric Orthogonalization.

  SCF Guess: Superposition of Atomic Densities via on-the-fly atomic UHF.

  ==> Iterations <==

                        Total Energy        Delta E     RMS |[F,P]|

   @RHF iter SAD:  -343.87553222573024   -3.43876e+02   0.00000e+00 
   @RHF iter   1:  -345.22131466271196   -1.34578e+00   4.91079e-03 DIIS
   @RHF iter   2:  -345.44251559270145   -2.21201e-01   2.70083e-03 DIIS
   @RHF iter   3:  -345.50661345955882   -6.40979e-02   4.20695e-04 DIIS
   @RHF iter   4:  -345.50953947951035   -2.92602e-03   1.66964e-04 DIIS
   @RHF iter   5:  -345.50997089453665   -4.31415e-04   2.38333e-05 DIIS
   @RHF iter   6:  -345.50998426927998   -1.33747e-05   5.12779e-06 DIIS
   @RHF iter   7:  -345.50998486922055   -5.99941e-07   1.50210e-06 DIIS
   @RHF iter   8:  -345.50998492205724   -5.28367e-08   4.33771e-07 DIIS
   @RHF iter   9:  -345.50998492765200   -5.59476e-09   1.30335e-07 DIIS
   @RHF iter  10:  -345.50998492826972   -6.17717e-10   6.43674e-08 DIIS
   @RHF iter  11:  -345.50998492835419   -8.44693e-11   2.13663e-08 DIIS
   @RHF iter  12:  -345.50998492837181   -1.76215e-11   9.90370e-09 DIIS
   @RHF iter  13:  -345.50998492837272   -9.09495e-13   3.00408e-09 DIIS
   @RHF iter  14:  -345.50998492837351   -7.95808e-13   9.67044e-10 DIIS
   @RHF iter  15:  -345.50998492837448   -9.66338e-13   3.17302e-10 DIIS
   @RHF iter  16:  -345.50998492837340    1.08002e-12   1.19994e-10 DIIS
   @RHF iter  17:  -345.50998492837419   -7.95808e-13   5.28387e-11 DIIS
  Energy and wave function converged.


  ==> Post-Iterations <==

    Orbital Energies [Eh]
    ---------------------

    Doubly Occupied:                                                      

       1A    -20.256280     2A    -20.254475     3A    -11.110341  
       4A    -11.107292     5A    -11.100943     6A    -11.080437  
       7A    -11.051577     8A     -1.145826     9A     -1.031557  
      10A     -0.907971    11A     -0.873967    12A     -0.724314  
      13A     -0.702340    14A     -0.509230    15A     -0.490846  
      16A     -0.484273    17A     -0.455963    18A     -0.429194  
      19A     -0.390166    20A     -0.385783    21A     -0.376409  
      22A     -0.372535    23A     -0.369220    24A     -0.355921  
      25A     -0.323629    26A     -0.298119    27A     -0.177442  
      28A     -0.168191    29A     -0.156421  

    Virtual:                                                              

      30A      0.293875    31A      0.327738    32A      0.342194  
      33A      0.355401    34A      0.370184    35A      0.385057  
      36A      0.392116    37A      0.401187    38A      0.407074  
      39A      0.423379    40A      0.448394    41A      0.499943  
      42A      0.510611    43A      0.556837    44A      0.604385  
      45A      0.677792    46A      0.691116    47A      0.714140  
      48A      0.727334    49A      0.745791    50A      0.756681  
      51A      0.771401    52A      0.806483    53A      0.821808  
      54A      0.898449    55A      0.954018    56A      0.973078  
      57A      0.987030    58A      0.997785    59A      1.001681  
      60A      1.006822    61A      1.017077    62A      1.028542  
      63A      1.030157    64A      1.042446    65A      1.049880  
      66A      1.059788    67A      1.067125    68A      1.085209  
      69A      1.094147    70A      1.112391    71A      1.150115  
      72A      1.184277    73A      1.231348    74A      1.245532  
      75A      1.258905    76A      1.304797    77A      1.308028  
      78A      1.394552    79A      1.480576    80A      1.513360  
      81A      1.528284    82A      1.553814    83A      1.583893  
      84A      1.596085    85A      1.602418    86A      1.626003  
      87A      1.632541    88A      1.683434    89A      1.697586  
      90A      1.709754    91A      1.734955    92A      1.788647  
      93A      1.811104    94A      1.823645    95A      1.826857  
      96A      1.966525    97A      1.971171    98A      1.977953  
      99A      2.011010   100A      2.029134   101A      2.047077  
     102A      2.056495   103A      2.060555   104A      2.062779  
     105A      2.071270   106A      2.089819   107A      2.101496  
     108A      2.111712   109A      2.131583   110A      2.134868  
     111A      2.167641   112A      2.190871   113A      2.216448  
     114A      2.227502   115A      2.252471   116A      2.297674  
     117A      2.330122   118A      2.372406   119A      2.398776  
     120A      2.428905   121A      2.485319   122A      2.503585  
     123A      2.558772   124A      2.573651   125A      2.581274  
     126A      2.620565   127A      2.676479   128A      2.689777  
     129A      2.722172   130A      2.742526   131A      2.758342  
     132A      2.823014   133A      2.881809   134A      2.897960  
     135A      2.926881   136A      2.956359   137A      2.980809  
     138A      2.984728   139A      2.997630   140A      3.039856  
     141A      3.066306   142A      3.106107   143A      3.128207  
     144A      3.248394   145A      3.290965   146A      3.305788  
     147A      3.367392   148A      3.646674   149A      3.790681  
     150A      3.835170   151A      4.060334   152A      4.089083  
     153A      4.200678  

    Final Occupation by Irrep:
              A 
    DOCC [    29 ]

  @RHF Final Energy:  -345.50998492837419

   => Energetics <=

    Nuclear Repulsion Energy =            292.6953868864247852
    One-Electron Energy =               -1062.2294208643550064
    Two-Electron Energy =                 424.0240490495560266
    Total Energy =                       -345.5099849283741946

Computation Completed


Properties will be evaluated at   0.000000,   0.000000,   0.000000 [a0]

Properties computed using the SCF density matrix

  Nuclear Dipole Moment: [e a0]
     X:    11.0964      Y:    -4.3958      Z:     2.2588

  Electronic Dipole Moment: [e a0]
     X:    -8.5985      Y:     3.6730      Z:    -1.4000

  Dipole Moment: [e a0]
     X:     2.4979      Y:    -0.7228      Z:     0.8588     Total:     2.7385

  Dipole Moment: [D]
     X:     6.3490      Y:    -1.8372      Z:     2.1829     Total:     6.9606


*** tstop() called on ds3 at Mon Apr 27 20:01:20 2020
Module time:
	user time   =      22.64 seconds =       0.38 minutes
	system time =      10.05 seconds =       0.17 minutes
	total time  =         33 seconds =       0.55 minutes
Total time:
	user time   =      22.64 seconds =       0.38 minutes
	system time =      10.05 seconds =       0.17 minutes
	total time  =         33 seconds =       0.55 minutes
                                     G D M A

                                 by Anthony Stone

                           version 2.2.06, 22 June 2011

               Distributed Multipoles from Gaussian wavefunctions


Starting at 20:1:20 on 27 Apr 2020  


Using SCF density matrix from file ./SSI/SSI-057VAL-084ASP-2-dimer.test.11961.fchk


                         Distributed Multipole Analysis

Standard DMA

Positions and radii in angstrom
Multipole moments in atomic units, ea_0^k for rank k

C          x =  2.334850  y = -1.531925  z = -0.804226 angstrom
           Maximum rank =  0   Radius =  0.650 angstrom
                   Q00  =  -0.224484

C          x =  1.594850  y = -2.767925  z = -1.298226 angstrom
           Maximum rank =  0   Radius =  0.650 angstrom
                   Q00  =  -0.237034

H          x =  2.772850  y = -0.989925  z = -1.643226 angstrom
           Maximum rank =  0   Radius =  0.325 angstrom
                   Q00  =   0.063865

H          x =  1.632850  y = -0.882925  z = -0.293226 angstrom
           Maximum rank =  0   Radius =  0.325 angstrom
                   Q00  =   0.123002

H          x =  3.115850  y = -1.796925  z = -0.091226 angstrom
           Maximum rank =  0   Radius =  0.325 angstrom
                   Q00  =   0.045652

H          x =  1.249850  y = -3.296925  z = -0.419226 angstrom
           Maximum rank =  0   Radius =  0.325 angstrom
                   Q00  =   0.078310

H          x =  2.266630  y = -3.396195  z = -1.901536 angstrom
           Maximum rank =  0   Radius =  0.325 angstrom
                   Q00  =   0.040213

H          x =  0.720380  y = -2.464885  z = -1.892756 angstrom
           Maximum rank =  0   Radius =  0.325 angstrom
                   Q00  =   0.106760

C          x =  0.063850  y =  0.848075  z =  1.075774 angstrom
           Maximum rank =  0   Radius =  0.650 angstrom
                   Q00  =  -0.112466

C          x = -0.279150  y =  2.079075  z =  1.914774 angstrom
           Maximum rank =  0   Radius =  0.650 angstrom
                   Q00  =  -0.189941

C          x = -0.985150  y =  0.563075  z =  0.006774 angstrom
           Maximum rank =  0   Radius =  0.650 angstrom
                   Q00  =   0.971087

O          x = -1.071150  y =  1.340075  z = -0.970226 angstrom
           Maximum rank =  0   Radius =  0.650 angstrom
                   Q00  =  -0.944232

O          x = -1.723150  y = -0.436925  z =  0.146774 angstrom
           Maximum rank =  0   Radius =  0.650 angstrom
                   Q00  =  -0.931154

H          x =  1.025850  y =  1.032075  z =  0.595774 angstrom
           Maximum rank =  0   Radius =  0.325 angstrom
                   Q00  =   0.018443

H          x =  0.167850  y = -0.021925  z =  1.724774 angstrom
           Maximum rank =  0   Radius =  0.325 angstrom
                   Q00  =   0.018316

H          x = -0.248150  y =  2.964075  z =  1.277774 angstrom
           Maximum rank =  0   Radius =  0.325 angstrom
                   Q00  =   0.078882

H          x =  0.443670  y =  2.184705  z =  2.737194 angstrom
           Maximum rank =  0   Radius =  0.325 angstrom
                   Q00  =   0.027294

H          x = -1.296760  y =  1.975225  z =  2.319364 angstrom
           Maximum rank =  0   Radius =  0.325 angstrom
                   Q00  =   0.067487

Total multipoles referred to origin at
           x =   0.000000,  y =    0.000000,  z =    0.000000 angstrom
                   Q00  =  -1.000000

Finished at 20:1:20 on 27 Apr 2020  

  DMA results are available in the Python driver through the
	  variable('DMA DISTRIBUTED MULTIPOLES')
  and
	  variable('DMA TOTAL MULTIPOLES')
  commands.


    Psi4 stopped on: Monday, 27 April 2020 08:01PM
    Psi4 wall time for execution: 0:00:32.37

*** Psi4 exiting successfully. Buy a developer a beer!
