
    -----------------------------------------------------------------------
          Psi4: An Open-Source Ab Initio Electronic Structure Package
                               Psi4 1.3.2 release

                         Git: Rev {HEAD} ecbda83 


    R. M. Parrish, L. A. Burns, D. G. A. Smith, A. C. Simmonett,
    A. E. DePrince III, E. G. Hohenstein, U. Bozkaya, A. Yu. Sokolov,
    R. Di Remigio, R. M. Richard, J. F. Gonthier, A. M. James,
    H. R. McAlexander, A. Kumar, M. Saitow, X. Wang, B. P. Pritchard,
    P. Verma, H. F. Schaefer III, K. Patkowski, R. A. King, E. F. Valeev,
    F. A. Evangelista, J. M. Turney, T. D. Crawford, and C. D. Sherrill,
    J. Chem. Theory Comput. 13(7) pp 3185--3197 (2017).
    (doi: 10.1021/acs.jctc.7b00174)


                         Additional Contributions by
    P. Kraus, H. Kruse, M. H. Lechner, M. C. Schieber, R. A. Shaw,
    A. Alenaizan, R. Galvelis, Z. L. Glick, S. Lehtola, and J. P. Misiewicz

    -----------------------------------------------------------------------


    Psi4 started on: Monday, 27 April 2020 05:48AM

    Process ID: 31072
    Host:       ds3
    PSIDATADIR: /theoryfs2/ds/metcalf/miniconda2/envs/tf2gpu/share/psi4
    Memory:     500.0 MiB
    Threads:    1
    
  ==> Input File <==

--------------------------------------------------------------------------
import numpy as np
set {scf_type pk
basis cc-pvdz
d_convergence 10
gdma_switch   0
gdma_limit    0
gdma_origin   [ 0.0,  0.0,  0.0 ]
}
molecule test {
    units Angstrom
    0 1
    --
    0 1
    C               -2.958613382813892    -2.242715680065873    -1.515464375453159
    C               -1.499613382813892    -0.056715680065873    -1.186464375453159
    C               -1.991613382813892    -1.171715680065873    -1.957464375453159
    C               -0.642613382813892     0.715284319934127    -2.029464375453159
    C               -1.448613382813892    -1.059715680065873    -3.182464375453159
    C               -1.061613382813892     1.536284319934127     0.596535624546841
    C               -0.220613382813892     2.284284319934127    -0.262464375453159
    C               -1.702613382813892     0.372284319934127     0.145535624546841
    C               -0.000613382813892     1.878284319934127    -1.585464375453159
    N               -0.627613382813892     0.071284319934127    -3.254464375453159
    H               -1.228613382813892     1.849284319934127     1.622535624546841
    H                0.257386617186108     3.183284319934127     0.106535624546841
    H               -2.345613382813891    -0.169715680065873     0.832535624546841
    H                0.639386617186108     2.424284319934127    -2.266464375453159
    H               -3.292613382813892    -2.772715680065873    -2.412464375453159
    H               -3.817613382813891    -1.730715680065873    -1.077464375453159
    H               -1.703613382813892    -1.811715680065873    -3.920464375453159
    H               -0.102613382813892     0.382284319934127    -4.066464375453159
    H               -2.550843382813892    -2.932675680065873    -0.762014375453159
    C                1.204386617186108    -0.443715680065873     2.971535624546841
    C                1.294386617186108    -1.849715680065873     3.598535624546841
    C                2.510386617186108     0.009284319934127     2.351535624546841
    O                3.591386617186108    -0.289715680065873     2.862535624546841
    N                2.406386617186108     0.741284319934127     1.250535624546841
    H                0.441386617186108    -0.459715680065873     2.192535624546841
    H                0.918386617186108     0.277284319934127     3.737535624546841
    H                2.092386617186108    -2.412715680065873     3.115535624546841
    H                0.350386617186108    -2.372715680065873     3.439535624546841
    H                3.245386617186108     1.070284319934127     0.789535624546841
    H                1.493386617186108     0.963284319934127     0.876535624546841
    H                1.491716617186108    -1.839025680065873     4.680635624546841

}
e, wfn = energy('scf', return_wfn=True)
gdma(wfn)
dmavals = variable('DMA DISTRIBUTED MULTIPOLES')
charges = np.array(dmavals)
print(charges)
np.save('SSI-045TRP-272GLN-1-dimer.npy', np.array(charges))--------------------------------------------------------------------------

*** tstart() called on ds3
*** at Mon Apr 27 05:48:59 2020

   => Loading Basis Set <=

    Name: CC-PVDZ
    Role: ORBITAL
    Keyword: BASIS
    atoms 1-9, 20-22   entry C          line   138 file /theoryfs2/ds/metcalf/miniconda2/envs/tf2gpu/share/psi4/basis/cc-pvdz.gbs 
    atoms 10, 24       entry N          line   168 file /theoryfs2/ds/metcalf/miniconda2/envs/tf2gpu/share/psi4/basis/cc-pvdz.gbs 
    atoms 11-19, 25-31 entry H          line    22 file /theoryfs2/ds/metcalf/miniconda2/envs/tf2gpu/share/psi4/basis/cc-pvdz.gbs 
    atoms 23           entry O          line   198 file /theoryfs2/ds/metcalf/miniconda2/envs/tf2gpu/share/psi4/basis/cc-pvdz.gbs 


         ---------------------------------------------------------
                                   SCF
               by Justin Turney, Rob Parrish, Andy Simmonett
                          and Daniel G. A. Smith
                              RHF Reference
                        1 Threads,    500 MiB Core
         ---------------------------------------------------------

  ==> Geometry <==

    Molecular point group: c1
    Full point group: C1

    Geometry (in Angstrom), charge = 0, multiplicity = 1:

       Center              X                  Y                   Z               Mass       
    ------------   -----------------  -----------------  -----------------  -----------------
         C           -2.958613382814    -2.242715680066    -1.515464375453    12.000000000000
         C           -1.499613382814    -0.056715680066    -1.186464375453    12.000000000000
         C           -1.991613382814    -1.171715680066    -1.957464375453    12.000000000000
         C           -0.642613382814     0.715284319934    -2.029464375453    12.000000000000
         C           -1.448613382814    -1.059715680066    -3.182464375453    12.000000000000
         C           -1.061613382814     1.536284319934     0.596535624547    12.000000000000
         C           -0.220613382814     2.284284319934    -0.262464375453    12.000000000000
         C           -1.702613382814     0.372284319934     0.145535624547    12.000000000000
         C           -0.000613382814     1.878284319934    -1.585464375453    12.000000000000
         N           -0.627613382814     0.071284319934    -3.254464375453    14.003074004430
         H           -1.228613382814     1.849284319934     1.622535624547     1.007825032230
         H            0.257386617186     3.183284319934     0.106535624547     1.007825032230
         H           -2.345613382814    -0.169715680066     0.832535624547     1.007825032230
         H            0.639386617186     2.424284319934    -2.266464375453     1.007825032230
         H           -3.292613382814    -2.772715680066    -2.412464375453     1.007825032230
         H           -3.817613382814    -1.730715680066    -1.077464375453     1.007825032230
         H           -1.703613382814    -1.811715680066    -3.920464375453     1.007825032230
         H           -0.102613382814     0.382284319934    -4.066464375453     1.007825032230
         H           -2.550843382814    -2.932675680066    -0.762014375453     1.007825032230
         C            1.204386617186    -0.443715680066     2.971535624547    12.000000000000
         C            1.294386617186    -1.849715680066     3.598535624547    12.000000000000
         C            2.510386617186     0.009284319934     2.351535624547    12.000000000000
         O            3.591386617186    -0.289715680066     2.862535624547    15.994914619570
         N            2.406386617186     0.741284319934     1.250535624547    14.003074004430
         H            0.441386617186    -0.459715680066     2.192535624547     1.007825032230
         H            0.918386617186     0.277284319934     3.737535624547     1.007825032230
         H            2.092386617186    -2.412715680066     3.115535624547     1.007825032230
         H            0.350386617186    -2.372715680066     3.439535624547     1.007825032230
         H            3.245386617186     1.070284319934     0.789535624547     1.007825032230
         H            1.493386617186     0.963284319934     0.876535624547     1.007825032230
         H            1.491716617186    -1.839025680066     4.680635624547     1.007825032230

  Running in c1 symmetry.

  Rotational constants: A =      0.02902  B =      0.00985  C =      0.00874 [cm^-1]
  Rotational constants: A =    869.92299  B =    295.43792  C =    262.02568 [MHz]
  Nuclear repulsion =  928.593781742151805

  Charge       = 0
  Multiplicity = 1
  Electrons    = 110
  Nalpha       = 55
  Nbeta        = 55

  ==> Algorithm <==

  SCF Algorithm Type is PK.
  DIIS enabled.
  MOM disabled.
  Fractional occupation disabled.
  Guess Type is SAD.
  Energy threshold   = 1.00e-06
  Density threshold  = 1.00e-10
  Integral threshold = 0.00e+00

  ==> Primary Basis <==

  Basis Set: CC-PVDZ
    Blend: CC-PVDZ
    Number of shells: 138
    Number of basis function: 290
    Number of Cartesian functions: 305
    Spherical Harmonics?: true
    Max angular momentum: 2

  ==> Pre-Iterations <==

   -------------------------------------------------------
    Irrep   Nso     Nmo     Nalpha   Nbeta   Ndocc  Nsocc
   -------------------------------------------------------
     A        290     290       0       0       0       0
   -------------------------------------------------------
    Total     290     290      55      55      55       0
   -------------------------------------------------------

  ==> Integral Setup <==

  Using integral reordering PK algorithm.
  Sizing the integral batches needed.
  Building batch lookup table.
   Calculation information:
      Number of atoms:                  31
      Number of AO shells:             138
      Number of primitives:            410
      Number of atomic orbitals:       305
      Number of basis functions:       290

      Integral cutoff                 1.00e-12
      Number of threads:                 1

	Batch   1 pq = [       0,    9405] index = [             0,44231715] size =     44231715
	Batch   2 pq = [    9405,   13301] index = [      44231715,88464951] size =     44233236
	Batch   3 pq = [   13301,   16290] index = [      88464951,132690195] size =     44225244
	Batch   4 pq = [   16290,   18810] index = [     132690195,176917455] size =     44227260
	Batch   5 pq = [   18810,   21030] index = [     176917455,221140965] size =     44223510
	Batch   6 pq = [   21030,   23037] index = [     221140965,265363203] size =     44222238
	Batch   7 pq = [   23037,   24883] index = [     265363203,309594286] size =     44231083
	Batch   8 pq = [   24883,   26601] index = [     309594286,353819901] size =     44225615
	Batch   9 pq = [   26601,   28214] index = [     353819901,398029005] size =     44209104
	Batch  10 pq = [   28214,   29740] index = [     398029005,442248670] size =     44219665
	Batch  11 pq = [   29740,   31191] index = [     442248670,486454836] size =     44206166
	Batch  12 pq = [   31191,   32578] index = [     486454836,530679331] size =     44224495
	Batch  13 pq = [   32578,   33908] index = [     530679331,574893186] size =     44213855
	Batch  14 pq = [   33908,   35188] index = [     574893186,619115266] size =     44222080
	Batch  15 pq = [   35188,   36423] index = [     619115266,663335676] size =     44220410
	Batch  16 pq = [   36423,   37617] index = [     663335676,707538153] size =     44202477
	Batch  17 pq = [   37617,   38775] index = [     707538153,751769700] size =     44231547
	Batch  18 pq = [   38775,   39899] index = [     751769700,795985050] size =     44215350
	Batch  19 pq = [   39899,   40992] index = [     795985050,840192528] size =     44207478
	Batch  20 pq = [   40992,   42057] index = [     840192528,884416653] size =     44224125
	Batch  21 pq = [   42057,   42195] index = [     884416653,890230110] size =      5813457
  Task number: 81
  Buffer size: 11059200
  Buffer per thread: 2
  We computed 43964337 shell quartets total.
  Whereas there are 45998436 unique shell quartets.

  ==> DiskJK: Disk-Based J/K Matrices <==

    J tasked:                  Yes
    K tasked:                  Yes
    wK tasked:                  No
    Memory [MiB]:              375
    Schwarz Cutoff:          1E-12

    OpenMP threads:              1

  Minimum eigenvalue in the overlap matrix is 2.5773661779E-04.
  Using Symmetric Orthogonalization.

  SCF Guess: Superposition of Atomic Densities via on-the-fly atomic UHF.

  ==> Iterations <==

                        Total Energy        Delta E     RMS |[F,P]|


Traceback (most recent call last):
  File "/theoryfs2/ds/metcalf/miniconda2/envs/tf2gpu/bin/psi4", line 287, in <module>
    exec(content)
  File "<string>", line 63, in <module>
  File "/theoryfs2/ds/metcalf/miniconda2/envs/tf2gpu/lib//python3.7/site-packages/psi4/driver/driver.py", line 556, in energy
    wfn = procedures['energy'][lowername](lowername, molecule=molecule, **kwargs)
  File "/theoryfs2/ds/metcalf/miniconda2/envs/tf2gpu/lib//python3.7/site-packages/psi4/driver/procrouting/proc.py", line 2002, in run_scf
    scf_wfn = scf_helper(name, post_scf=False, **kwargs)
  File "/theoryfs2/ds/metcalf/miniconda2/envs/tf2gpu/lib//python3.7/site-packages/psi4/driver/procrouting/proc.py", line 1363, in scf_helper
    e_scf = scf_wfn.compute_energy()
  File "/theoryfs2/ds/metcalf/miniconda2/envs/tf2gpu/lib//python3.7/site-packages/psi4/driver/procrouting/scf_proc/scf_iterator.py", line 87, in scf_compute_energy
    self.iterations()
  File "/theoryfs2/ds/metcalf/miniconda2/envs/tf2gpu/lib//python3.7/site-packages/psi4/driver/procrouting/scf_proc/scf_iterator.py", line 289, in scf_iterate
    self.form_G()

RuntimeError: 
Fatal Error: PSIO Error
Error occurred in file: /scratch/psilocaluser/conda-builds/psi4-multiout_1563933640427/work/psi4/src/psi4/libpsio/error.cc on line: 128
The most recent 5 function calls were:

psi::PSIO::rw(unsigned long, char*, psi::psio_address, unsigned long, int)
psi::PSIO::read_entry(unsigned long, char const*, char*, unsigned long)



Printing out the relevant lines from the Psithon --> Python processed input file:
        H                3.245386617186108     1.070284319934127     0.789535624546841
        H                1.493386617186108     0.963284319934127     0.876535624546841
        H                1.491716617186108    -1.839025680065873     4.680635624546841
    ""","test")
    core.IO.set_default_namespace("test")
--> e, wfn = energy('scf', return_wfn=True)
    gdma(wfn)
    dmavals = variable('DMA DISTRIBUTED MULTIPOLES')
    charges = np.array(dmavals)
    print(charges)
    np.save('SSI-045TRP-272GLN-1-dimer.npy', np.array(charges))

    Psi4 stopped on: Monday, 27 April 2020 05:57AM
    Psi4 wall time for execution: 0:08:08.17

*** Psi4 encountered an error. Buy a developer more coffee!
*** Resources and help at github.com/psi4/psi4.
