
    -----------------------------------------------------------------------
          Psi4: An Open-Source Ab Initio Electronic Structure Package
                               Psi4 1.3.2 release

                         Git: Rev {HEAD} ecbda83 


    R. M. Parrish, L. A. Burns, D. G. A. Smith, A. C. Simmonett,
    A. E. DePrince III, E. G. Hohenstein, U. Bozkaya, A. Yu. Sokolov,
    R. Di Remigio, R. M. Richard, J. F. Gonthier, A. M. James,
    H. R. McAlexander, A. Kumar, M. Saitow, X. Wang, B. P. Pritchard,
    P. Verma, H. F. Schaefer III, K. Patkowski, R. A. King, E. F. Valeev,
    F. A. Evangelista, J. M. Turney, T. D. Crawford, and C. D. Sherrill,
    J. Chem. Theory Comput. 13(7) pp 3185--3197 (2017).
    (doi: 10.1021/acs.jctc.7b00174)


                         Additional Contributions by
    P. Kraus, H. Kruse, M. H. Lechner, M. C. Schieber, R. A. Shaw,
    A. Alenaizan, R. Galvelis, Z. L. Glick, S. Lehtola, and J. P. Misiewicz

    -----------------------------------------------------------------------


    Psi4 started on: Sunday, 26 April 2020 11:19PM

    Process ID: 28910
    Host:       ds3
    PSIDATADIR: /theoryfs2/ds/metcalf/miniconda2/envs/tf2gpu/share/psi4
    Memory:     500.0 MiB
    Threads:    1
    
  ==> Input File <==

--------------------------------------------------------------------------
import numpy as np
set {scf_type pk
basis cc-pvdz
d_convergence 10
gdma_switch   0
gdma_limit    0
gdma_origin   [ 0.0,  0.0,  0.0 ]
}
molecule test {
    units Angstrom
    -1 1
    --
    -1 1
    C               -2.040454920252297     3.127398307909007    -0.735838596676928
    C               -0.836454920252298     1.306398307909007     0.506161403323072
    C               -1.992454920252298     1.752398307909007    -0.128838596676928
    C               -0.783454920252298     0.039398307909007     1.078161403323072
    C               -3.106454920252298     0.918398307909007    -0.168838596676928
    C               -1.901454920252298    -0.789601692090993     1.026161403323072
    C               -3.063454920252298    -0.350601692090993     0.401161403323072
    O               -1.848454920252298    -2.027601692090993     1.590161403323072
    H                0.034545079747702     1.948398307909007     0.555161403323072
    H                0.115545079747702    -0.304601692090993     1.565161403323072
    H               -2.789454920252298     3.156398307909007    -1.529838596676928
    H               -1.069454920252298     3.325398307909007    -1.187838596676928
    H               -4.017454920252298     1.261398307909007    -0.641838596676928
    H               -3.930454920252298    -0.990601692090993     0.365161403323072
    H               -2.697454920252297    -2.526601692090993     1.581161403323072
    H               -2.255354920252298     3.908398307909007     0.008380403323072
    C                2.300545079747702     0.176398307909007    -0.989838596676928
    C                2.502545079747702     0.024398307909007    -2.501838596676928
    C                3.023545079747703    -0.897601692090993    -0.186838596676928
    O                3.242545079747702    -2.010601692090993    -0.713838596676928
    O                3.355545079747702    -0.631601692090993     0.989161403323072
    H                2.603545079747703     1.175398307909007    -0.668838596676928
    H                1.238545079747702     0.063398307909007    -0.782838596676928
    H                2.572545079747703    -1.031601692090993    -2.760838596676928
    H                3.419474079747702     0.534807307909007    -2.831571596676928
    H                1.616380079747702     0.403668307909007    -3.031806596676928

}
e, wfn = energy('scf', return_wfn=True)
gdma(wfn)
dmavals = variable('DMA DISTRIBUTED MULTIPOLES')
charges = np.array(dmavals)
print(charges)
np.save('SSI-210TYR-216ASP-1-dimer.npy', np.array(charges))--------------------------------------------------------------------------

*** tstart() called on ds3
*** at Sun Apr 26 23:19:27 2020

   => Loading Basis Set <=

    Name: CC-PVDZ
    Role: ORBITAL
    Keyword: BASIS
    atoms 1-7, 17-19  entry C          line   138 file /theoryfs2/ds/metcalf/miniconda2/envs/tf2gpu/share/psi4/basis/cc-pvdz.gbs 
    atoms 8, 20-21    entry O          line   198 file /theoryfs2/ds/metcalf/miniconda2/envs/tf2gpu/share/psi4/basis/cc-pvdz.gbs 
    atoms 9-16, 22-26 entry H          line    22 file /theoryfs2/ds/metcalf/miniconda2/envs/tf2gpu/share/psi4/basis/cc-pvdz.gbs 


         ---------------------------------------------------------
                                   SCF
               by Justin Turney, Rob Parrish, Andy Simmonett
                          and Daniel G. A. Smith
                              RHF Reference
                        1 Threads,    500 MiB Core
         ---------------------------------------------------------

  ==> Geometry <==

    Molecular point group: c1
    Full point group: C1

    Geometry (in Angstrom), charge = -1, multiplicity = 1:

       Center              X                  Y                   Z               Mass       
    ------------   -----------------  -----------------  -----------------  -----------------
         C           -2.040454920252     3.127398307909    -0.735838596677    12.000000000000
         C           -0.836454920252     1.306398307909     0.506161403323    12.000000000000
         C           -1.992454920252     1.752398307909    -0.128838596677    12.000000000000
         C           -0.783454920252     0.039398307909     1.078161403323    12.000000000000
         C           -3.106454920252     0.918398307909    -0.168838596677    12.000000000000
         C           -1.901454920252    -0.789601692091     1.026161403323    12.000000000000
         C           -3.063454920252    -0.350601692091     0.401161403323    12.000000000000
         O           -1.848454920252    -2.027601692091     1.590161403323    15.994914619570
         H            0.034545079748     1.948398307909     0.555161403323     1.007825032230
         H            0.115545079748    -0.304601692091     1.565161403323     1.007825032230
         H           -2.789454920252     3.156398307909    -1.529838596677     1.007825032230
         H           -1.069454920252     3.325398307909    -1.187838596677     1.007825032230
         H           -4.017454920252     1.261398307909    -0.641838596677     1.007825032230
         H           -3.930454920252    -0.990601692091     0.365161403323     1.007825032230
         H           -2.697454920252    -2.526601692091     1.581161403323     1.007825032230
         H           -2.255354920252     3.908398307909     0.008380403323     1.007825032230
         C            2.300545079748     0.176398307909    -0.989838596677    12.000000000000
         C            2.502545079748     0.024398307909    -2.501838596677    12.000000000000
         C            3.023545079748    -0.897601692091    -0.186838596677    12.000000000000
         O            3.242545079748    -2.010601692091    -0.713838596677    15.994914619570
         O            3.355545079748    -0.631601692091     0.989161403323    15.994914619570
         H            2.603545079748     1.175398307909    -0.668838596677     1.007825032230
         H            1.238545079748     0.063398307909    -0.782838596677     1.007825032230
         H            2.572545079748    -1.031601692091    -2.760838596677     1.007825032230
         H            3.419474079748     0.534807307909    -2.831571596677     1.007825032230
         H            1.616380079748     0.403668307909    -3.031806596677     1.007825032230

  Running in c1 symmetry.

  Rotational constants: A =      0.03270  B =      0.01267  C =      0.01034 [cm^-1]
  Rotational constants: A =    980.41601  B =    379.83564  C =    309.97263 [MHz]
  Nuclear repulsion =  733.236485717443088

  Charge       = -1
  Multiplicity = 1
  Electrons    = 98
  Nalpha       = 49
  Nbeta        = 49

  ==> Algorithm <==

  SCF Algorithm Type is PK.
  DIIS enabled.
  MOM disabled.
  Fractional occupation disabled.
  Guess Type is SAD.
  Energy threshold   = 1.00e-06
  Density threshold  = 1.00e-10
  Integral threshold = 0.00e+00

  ==> Primary Basis <==

  Basis Set: CC-PVDZ
    Blend: CC-PVDZ
    Number of shells: 117
    Number of basis function: 247
    Number of Cartesian functions: 260
    Spherical Harmonics?: true
    Max angular momentum: 2

  ==> Pre-Iterations <==

   -------------------------------------------------------
    Irrep   Nso     Nmo     Nalpha   Nbeta   Ndocc  Nsocc
   -------------------------------------------------------
     A        247     247       0       0       0       0
   -------------------------------------------------------
    Total     247     247      49      49      49       0
   -------------------------------------------------------

  ==> Integral Setup <==

  Using integral reordering PK algorithm.
  Sizing the integral batches needed.
  Building batch lookup table.
   Calculation information:
      Number of atoms:                  26
      Number of AO shells:             117
      Number of primitives:            351
      Number of atomic orbitals:       260
      Number of basis functions:       247

      Integral cutoff                 1.00e-12
      Number of threads:                 1

	Batch   1 pq = [       0,    9405] index = [             0,44231715] size =     44231715
	Batch   2 pq = [    9405,   13301] index = [      44231715,88464951] size =     44233236
	Batch   3 pq = [   13301,   16290] index = [      88464951,132690195] size =     44225244
	Batch   4 pq = [   16290,   18810] index = [     132690195,176917455] size =     44227260
	Batch   5 pq = [   18810,   21030] index = [     176917455,221140965] size =     44223510
	Batch   6 pq = [   21030,   23037] index = [     221140965,265363203] size =     44222238
	Batch   7 pq = [   23037,   24883] index = [     265363203,309594286] size =     44231083
	Batch   8 pq = [   24883,   26601] index = [     309594286,353819901] size =     44225615
	Batch   9 pq = [   26601,   28214] index = [     353819901,398029005] size =     44209104
	Batch  10 pq = [   28214,   29740] index = [     398029005,442248670] size =     44219665
	Batch  11 pq = [   29740,   30628] index = [     442248670,469052506] size =     26803836
  Task number: 43
  Buffer size: 11059200
  Buffer per thread: 2
  We computed 21112284 shell quartets total.
  Whereas there are 23829156 unique shell quartets.

  ==> DiskJK: Disk-Based J/K Matrices <==

    J tasked:                  Yes
    K tasked:                  Yes
    wK tasked:                  No
    Memory [MiB]:              375
    Schwarz Cutoff:          1E-12

    OpenMP threads:              1

  Minimum eigenvalue in the overlap matrix is 3.1987052026E-04.
  Using Symmetric Orthogonalization.

  SCF Guess: Superposition of Atomic Densities via on-the-fly atomic UHF.

  ==> Iterations <==

                        Total Energy        Delta E     RMS |[F,P]|

   @RHF iter SAD:  -609.20006850125060   -6.09200e+02   0.00000e+00 
   @RHF iter   1:  -610.50714039312618   -1.30707e+00   3.43285e-03 DIIS
   @RHF iter   2:  -610.81642006479444   -3.09280e-01   1.79546e-03 DIIS
   @RHF iter   3:  -610.89170002393416   -7.52800e-02   3.21903e-04 DIIS
   @RHF iter   4:  -610.89596187882637   -4.26185e-03   1.24084e-04 DIIS
   @RHF iter   5:  -610.89655791951895   -5.96041e-04   1.99955e-05 DIIS
   @RHF iter   6:  -610.89658186034603   -2.39408e-05   7.03179e-06 DIIS
   @RHF iter   7:  -610.89658439531672   -2.53497e-06   2.66912e-06 DIIS
   @RHF iter   8:  -610.89658479415289   -3.98836e-07   8.56399e-07 DIIS
   @RHF iter   9:  -610.89658484750214   -5.33493e-08   2.83267e-07 DIIS
   @RHF iter  10:  -610.89658485536597   -7.86383e-09   1.02290e-07 DIIS
   @RHF iter  11:  -610.89658485688449   -1.51852e-09   4.79592e-08 DIIS
   @RHF iter  12:  -610.89658485723601   -3.51520e-10   2.56169e-08 DIIS
   @RHF iter  13:  -610.89658485735026   -1.14255e-10   9.12498e-09 DIIS
   @RHF iter  14:  -610.89658485735913   -8.86757e-12   3.51016e-09 DIIS
   @RHF iter  15:  -610.89658485736572   -6.59384e-12   1.07823e-09 DIIS
   @RHF iter  16:  -610.89658485736436    1.36424e-12   4.72236e-10 DIIS
   @RHF iter  17:  -610.89658485736493   -5.68434e-13   1.90137e-10 DIIS
   @RHF iter  18:  -610.89658485736391    1.02318e-12   8.42507e-11 DIIS
  Energy and wave function converged.


  ==> Post-Iterations <==

    Orbital Energies [Eh]
    ---------------------

    Doubly Occupied:                                                      

       1A    -20.493754     2A    -20.257136     3A    -20.254395  
       4A    -11.208232     5A    -11.151865     6A    -11.148758  
       7A    -11.145270     8A    -11.144344     9A    -11.142648  
      10A    -11.131990    11A    -11.110063    12A    -11.065779  
      13A    -11.049074    14A     -1.304007    15A     -1.146460  
      16A     -1.061723    17A     -1.031863    18A     -0.951070  
      19A     -0.926771    20A     -0.865055    21A     -0.840991  
      22A     -0.753875    23A     -0.712414    24A     -0.697942  
      25A     -0.641150    26A     -0.577959    27A     -0.551277  
      28A     -0.517505    29A     -0.504443    30A     -0.499930  
      31A     -0.493689    32A     -0.486726    33A     -0.476958  
      34A     -0.455808    35A     -0.440287    36A     -0.427082  
      37A     -0.410591    38A     -0.392778    39A     -0.384712  
      40A     -0.379245    41A     -0.359005    42A     -0.349232  
      43A     -0.321963    44A     -0.295304    45A     -0.245123  
      46A     -0.212170    47A     -0.179073    48A     -0.166854  
      49A     -0.157272  

    Virtual:                                                              

      50A      0.220889    51A      0.244896    52A      0.255730  
      53A      0.264887    54A      0.294314    55A      0.314170  
      56A      0.333427    57A      0.341267    58A      0.357867  
      59A      0.363966    60A      0.380844    61A      0.397690  
      62A      0.418843    63A      0.432747    64A      0.445503  
      65A      0.455887    66A      0.462392    67A      0.500606  
      68A      0.516459    69A      0.539116    70A      0.554440  
      71A      0.578415    72A      0.588675    73A      0.598115  
      74A      0.608920    75A      0.692655    76A      0.701300  
      77A      0.719050    78A      0.730219    79A      0.741792  
      80A      0.752831    81A      0.759230    82A      0.771974  
      83A      0.781372    84A      0.798446    85A      0.801936  
      86A      0.817970    87A      0.827354    88A      0.837351  
      89A      0.851903    90A      0.862408    91A      0.875584  
      92A      0.877651    93A      0.904779    94A      0.913565  
      95A      0.932390    96A      0.951775    97A      0.962614  
      98A      0.966209    99A      0.975417   100A      0.980369  
     101A      0.995646   102A      0.997767   103A      1.009620  
     104A      1.016128   105A      1.023957   106A      1.030384  
     107A      1.042020   108A      1.046660   109A      1.057092  
     110A      1.068567   111A      1.080226   112A      1.086249  
     113A      1.093232   114A      1.109452   115A      1.114235  
     116A      1.132028   117A      1.154440   118A      1.172046  
     119A      1.219074   120A      1.229253   121A      1.238034  
     122A      1.251983   123A      1.285497   124A      1.298838  
     125A      1.301484   126A      1.332769   127A      1.338608  
     128A      1.346644   129A      1.368222   130A      1.373746  
     131A      1.396424   132A      1.401474   133A      1.402823  
     134A      1.407386   135A      1.447330   136A      1.453872  
     137A      1.469388   138A      1.483778   139A      1.521467  
     140A      1.551006   141A      1.573253   142A      1.580716  
     143A      1.611942   144A      1.625517   145A      1.634098  
     146A      1.646371   147A      1.665273   148A      1.690440  
     149A      1.702123   150A      1.715319   151A      1.717736  
     152A      1.769963   153A      1.780705   154A      1.800527  
     155A      1.828941   156A      1.837327   157A      1.846202  
     158A      1.870768   159A      1.894580   160A      1.898319  
     161A      1.917843   162A      1.920189   163A      1.956670  
     164A      1.974822   165A      1.983366   166A      1.993194  
     167A      2.004035   168A      2.007810   169A      2.023910  
     170A      2.045485   171A      2.046790   172A      2.053463  
     173A      2.058507   174A      2.067938   175A      2.090304  
     176A      2.103013   177A      2.113408   178A      2.124590  
     179A      2.135440   180A      2.143735   181A      2.150904  
     182A      2.162395   183A      2.171727   184A      2.188812  
     185A      2.208161   186A      2.218134   187A      2.232222  
     188A      2.238539   189A      2.255260   190A      2.272747  
     191A      2.294930   192A      2.315836   193A      2.354102  
     194A      2.367290   195A      2.380212   196A      2.401766  
     197A      2.410882   198A      2.425606   199A      2.463912  
     200A      2.468132   201A      2.498810   202A      2.511498  
     203A      2.516020   204A      2.536045   205A      2.570549  
     206A      2.571994   207A      2.583667   208A      2.621716  
     209A      2.632958   210A      2.653016   211A      2.692096  
     212A      2.728795   213A      2.756165   214A      2.774561  
     215A      2.837330   216A      2.841227   217A      2.857076  
     218A      2.878354   219A      2.907694   220A      2.916021  
     221A      2.927204   222A      2.975656   223A      2.989161  
     224A      3.005546   225A      3.054100   226A      3.065918  
     227A      3.096268   228A      3.140201   229A      3.185388  
     230A      3.201354   231A      3.250667   232A      3.291546  
     233A      3.304639   234A      3.317965   235A      3.369130  
     236A      3.377861   237A      3.438874   238A      3.643708  
     239A      3.652449   240A      3.746636   241A      3.782676  
     242A      3.832980   243A      4.061266   244A      4.077000  
     245A      4.086325   246A      4.209976   247A      4.260303  

    Final Occupation by Irrep:
              A 
    DOCC [    49 ]

  @RHF Final Energy:  -610.89658485736391

   => Energetics <=

    Nuclear Repulsion Energy =            733.2364857174430881
    One-Electron Energy =               -2303.2229107294633650
    Two-Electron Energy =                 959.0898401546564855
    Total Energy =                       -610.8965848573639050

Computation Completed


Properties will be evaluated at   0.000000,   0.000000,   0.000000 [a0]

Properties computed using the SCF density matrix

  Nuclear Dipole Moment: [e a0]
     X:    -4.8136      Y:    10.2183      Z:    -8.7661

  Electronic Dipole Moment: [e a0]
     X:    -1.4966      Y:    -7.8290      Z:     8.5332

  Dipole Moment: [e a0]
     X:    -6.3102      Y:     2.3894      Z:    -0.2329     Total:     6.7515

  Dipole Moment: [D]
     X:   -16.0390      Y:     6.0732      Z:    -0.5920     Total:    17.1605


*** tstop() called on ds3 at Sun Apr 26 23:23:30 2020
Module time:
	user time   =     168.16 seconds =       2.80 minutes
	system time =      71.16 seconds =       1.19 minutes
	total time  =        243 seconds =       4.05 minutes
Total time:
	user time   =     168.16 seconds =       2.80 minutes
	system time =      71.16 seconds =       1.19 minutes
	total time  =        243 seconds =       4.05 minutes
                                     G D M A

                                 by Anthony Stone

                           version 2.2.06, 22 June 2011

               Distributed Multipoles from Gaussian wavefunctions


Starting at 23:23:30 on 26 Apr 2020 


Using SCF density matrix from file ./SSI/SSI-210TYR-216ASP-1-dimer.test.28910.fchk


                         Distributed Multipole Analysis

Standard DMA

Positions and radii in angstrom
Multipole moments in atomic units, ea_0^k for rank k

C          x = -2.040455  y =  3.127398  z = -0.735839 angstrom
           Maximum rank =  0   Radius =  0.650 angstrom
                   Q00  =  -0.193383

C          x = -0.836455  y =  1.306398  z =  0.506161 angstrom
           Maximum rank =  0   Radius =  0.650 angstrom
                   Q00  =  -0.013468

C          x = -1.992455  y =  1.752398  z = -0.128839 angstrom
           Maximum rank =  0   Radius =  0.650 angstrom
                   Q00  =  -0.139778

C          x = -0.783455  y =  0.039398  z =  1.078161 angstrom
           Maximum rank =  0   Radius =  0.650 angstrom
                   Q00  =  -0.065417

C          x = -3.106455  y =  0.918398  z = -0.168839 angstrom
           Maximum rank =  0   Radius =  0.650 angstrom
                   Q00  =   0.022514

C          x = -1.901455  y = -0.789602  z =  1.026161 angstrom
           Maximum rank =  0   Radius =  0.650 angstrom
                   Q00  =   0.322838

C          x = -3.063455  y = -0.350602  z =  0.401161 angstrom
           Maximum rank =  0   Radius =  0.650 angstrom
                   Q00  =  -0.198653

O          x = -1.848455  y = -2.027602  z =  1.590161 angstrom
           Maximum rank =  0   Radius =  0.650 angstrom
                   Q00  =  -0.671943

H          x =  0.034545  y =  1.948398  z =  0.555161 angstrom
           Maximum rank =  0   Radius =  0.325 angstrom
                   Q00  =   0.073344

H          x =  0.115545  y = -0.304602  z =  1.565161 angstrom
           Maximum rank =  0   Radius =  0.325 angstrom
                   Q00  =   0.091582

H          x = -2.789455  y =  3.156398  z = -1.529839 angstrom
           Maximum rank =  0   Radius =  0.325 angstrom
                   Q00  =   0.084506

H          x = -1.069455  y =  3.325398  z = -1.187839 angstrom
           Maximum rank =  0   Radius =  0.325 angstrom
                   Q00  =   0.102152

H          x = -4.017455  y =  1.261398  z = -0.641839 angstrom
           Maximum rank =  0   Radius =  0.325 angstrom
                   Q00  =   0.048174

H          x = -3.930455  y = -0.990602  z =  0.365161 angstrom
           Maximum rank =  0   Radius =  0.325 angstrom
                   Q00  =   0.054153

H          x = -2.697455  y = -2.526602  z =  1.581161 angstrom
           Maximum rank =  0   Radius =  0.325 angstrom
                   Q00  =   0.401206

H          x = -2.255355  y =  3.908398  z =  0.008380 angstrom
           Maximum rank =  0   Radius =  0.325 angstrom
                   Q00  =   0.086117

C          x =  2.300545  y =  0.176398  z = -0.989839 angstrom
           Maximum rank =  0   Radius =  0.650 angstrom
                   Q00  =  -0.156249

C          x =  2.502545  y =  0.024398  z = -2.501839 angstrom
           Maximum rank =  0   Radius =  0.650 angstrom
                   Q00  =  -0.215874

C          x =  3.023545  y = -0.897602  z = -0.186839 angstrom
           Maximum rank =  0   Radius =  0.650 angstrom
                   Q00  =   0.984854

O          x =  3.242545  y = -2.010602  z = -0.713839 angstrom
           Maximum rank =  0   Radius =  0.650 angstrom
                   Q00  =  -0.946652

O          x =  3.355545  y = -0.631602  z =  0.989161 angstrom
           Maximum rank =  0   Radius =  0.650 angstrom
                   Q00  =  -0.930467

H          x =  2.603545  y =  1.175398  z = -0.668839 angstrom
           Maximum rank =  0   Radius =  0.325 angstrom
                   Q00  =   0.020121

H          x =  1.238545  y =  0.063398  z = -0.782839 angstrom
           Maximum rank =  0   Radius =  0.325 angstrom
                   Q00  =   0.067518

H          x =  2.572545  y = -1.031602  z = -2.760839 angstrom
           Maximum rank =  0   Radius =  0.325 angstrom
                   Q00  =   0.103361

H          x =  3.419474  y =  0.534807  z = -2.831572 angstrom
           Maximum rank =  0   Radius =  0.325 angstrom
                   Q00  =   0.047298

H          x =  1.616380  y =  0.403668  z = -3.031807 angstrom
           Maximum rank =  0   Radius =  0.325 angstrom
                   Q00  =   0.022148

Total multipoles referred to origin at
           x =   0.000000,  y =    0.000000,  z =    0.000000 angstrom
                   Q00  =  -1.000000

Finished at 23:23:30 on 26 Apr 2020 

  DMA results are available in the Python driver through the
	  variable('DMA DISTRIBUTED MULTIPOLES')
  and
	  variable('DMA TOTAL MULTIPOLES')
  commands.


    Psi4 stopped on: Sunday, 26 April 2020 11:23PM
    Psi4 wall time for execution: 0:04:02.53

*** Psi4 exiting successfully. Buy a developer a beer!
