
    -----------------------------------------------------------------------
          Psi4: An Open-Source Ab Initio Electronic Structure Package
                               Psi4 1.3.2 release

                         Git: Rev {HEAD} ecbda83 


    R. M. Parrish, L. A. Burns, D. G. A. Smith, A. C. Simmonett,
    A. E. DePrince III, E. G. Hohenstein, U. Bozkaya, A. Yu. Sokolov,
    R. Di Remigio, R. M. Richard, J. F. Gonthier, A. M. James,
    H. R. McAlexander, A. Kumar, M. Saitow, X. Wang, B. P. Pritchard,
    P. Verma, H. F. Schaefer III, K. Patkowski, R. A. King, E. F. Valeev,
    F. A. Evangelista, J. M. Turney, T. D. Crawford, and C. D. Sherrill,
    J. Chem. Theory Comput. 13(7) pp 3185--3197 (2017).
    (doi: 10.1021/acs.jctc.7b00174)


                         Additional Contributions by
    P. Kraus, H. Kruse, M. H. Lechner, M. C. Schieber, R. A. Shaw,
    A. Alenaizan, R. Galvelis, Z. L. Glick, S. Lehtola, and J. P. Misiewicz

    -----------------------------------------------------------------------


    Psi4 started on: Tuesday, 28 April 2020 02:51PM

    Process ID: 17619
    Host:       ds3
    PSIDATADIR: /theoryfs2/ds/metcalf/miniconda2/envs/tf2gpu/share/psi4
    Memory:     500.0 MiB
    Threads:    1
    
  ==> Input File <==

--------------------------------------------------------------------------
import numpy as np
set {scf_type pk
basis cc-pvdz
d_convergence 10
gdma_switch   0
gdma_limit    0
gdma_origin   [ 0.0,  0.0,  0.0 ]
}
molecule test {
    units Angstrom
    0 1
    --
    0 1
    C                0.395351884320702    -1.483426217674310    -3.922048003446275
    C               -0.825648115679298     1.798573782325690    -2.468048003446276
    C                0.376351884320702     2.414573782325690    -2.151048003446275
    C               -0.827648115679298     0.539573782325690    -3.036048003446275
    C                0.366351884320702    -0.142426217674310    -3.239048003446275
    C                1.566351884320702     1.744573782325689    -2.375048003446275
    C                1.561351884320702     0.483573782325690    -2.916048003446275
    H               -1.757648115679298     2.316573782325690    -2.294048003446276
    H                0.387351884320702     3.410573782325690    -1.733048003446275
    H               -1.761648115679298     0.095573782325690    -3.332048003446275
    H                2.505351884320702     2.222573782325690    -2.132048003446275
    H                1.426351884320702    -1.836426217674310    -3.958048003446275
    H                0.072351884320702    -1.346426217674310    -4.951048003446275
    H                2.501351884320702    -0.011426217674310    -3.101048003446275
    H               -0.208828115679298    -2.278466217674310    -3.460668003446275
    C               -2.896648115679298     0.540573782325689     1.130951996553725
    C               -0.450648115679298    -0.228426217674310     1.718951996553725
    C               -1.882648115679298    -0.257426217674310     1.874951996553725
    C                0.097351884320702    -1.117426217674311     2.672951996553725
    C               -2.133648115679298    -1.157426217674310     2.842951996553725
    C                0.423351884320702     0.471573782325690     0.890951996553725
    C                1.798351884320702     0.281573782325690     1.039951996553725
    C                2.303351884320702    -0.612426217674310     1.983951996553725
    C                1.464351884320702    -1.325426217674311     2.814951996553724
    N               -0.960648115679298    -1.689426217674310     3.319951996553725
    H                0.037351884320702     1.145573782325690     0.144951996553725
    H                2.476351884320702     0.844573782325690     0.413951996553725
    H                3.374351884320702    -0.738426217674310     2.067951996553725
    H               -2.438648115679298     1.498573782325689     0.893951996553725
    H               -3.744648115679298     0.741573782325689     1.788951996553725
    H               -3.123648115679298    -1.407426217674310     3.188951996553725
    H               -0.881648115679298    -2.492426217674310     3.939951996553725
    H                1.842351884320702    -2.015426217674311     3.553951996553725
    H               -3.261988115679298     0.103873782325690     0.189771996553725

}
e, wfn = energy('scf', return_wfn=True)
gdma(wfn)
dmavals = variable('DMA DISTRIBUTED MULTIPOLES')
charges = np.array(dmavals)
print(charges)
np.save('SSI-217PHE-249TRP-1-dimer.npy', np.array(charges))--------------------------------------------------------------------------

*** tstart() called on ds3
*** at Tue Apr 28 14:51:24 2020

   => Loading Basis Set <=

    Name: CC-PVDZ
    Role: ORBITAL
    Keyword: BASIS
    atoms 1-7, 16-24  entry C          line   138 file /theoryfs2/ds/metcalf/miniconda2/envs/tf2gpu/share/psi4/basis/cc-pvdz.gbs 
    atoms 8-15, 26-34 entry H          line    22 file /theoryfs2/ds/metcalf/miniconda2/envs/tf2gpu/share/psi4/basis/cc-pvdz.gbs 
    atoms 25          entry N          line   168 file /theoryfs2/ds/metcalf/miniconda2/envs/tf2gpu/share/psi4/basis/cc-pvdz.gbs 


         ---------------------------------------------------------
                                   SCF
               by Justin Turney, Rob Parrish, Andy Simmonett
                          and Daniel G. A. Smith
                              RHF Reference
                        1 Threads,    500 MiB Core
         ---------------------------------------------------------

  ==> Geometry <==

    Molecular point group: c1
    Full point group: C1

    Geometry (in Angstrom), charge = 0, multiplicity = 1:

       Center              X                  Y                   Z               Mass       
    ------------   -----------------  -----------------  -----------------  -----------------
         C            0.395351884321    -1.483426217674    -3.922048003446    12.000000000000
         C           -0.825648115679     1.798573782326    -2.468048003446    12.000000000000
         C            0.376351884321     2.414573782326    -2.151048003446    12.000000000000
         C           -0.827648115679     0.539573782326    -3.036048003446    12.000000000000
         C            0.366351884321    -0.142426217674    -3.239048003446    12.000000000000
         C            1.566351884321     1.744573782326    -2.375048003446    12.000000000000
         C            1.561351884321     0.483573782326    -2.916048003446    12.000000000000
         H           -1.757648115679     2.316573782326    -2.294048003446     1.007825032230
         H            0.387351884321     3.410573782326    -1.733048003446     1.007825032230
         H           -1.761648115679     0.095573782326    -3.332048003446     1.007825032230
         H            2.505351884321     2.222573782326    -2.132048003446     1.007825032230
         H            1.426351884321    -1.836426217674    -3.958048003446     1.007825032230
         H            0.072351884321    -1.346426217674    -4.951048003446     1.007825032230
         H            2.501351884321    -0.011426217674    -3.101048003446     1.007825032230
         H           -0.208828115679    -2.278466217674    -3.460668003446     1.007825032230
         C           -2.896648115679     0.540573782326     1.130951996554    12.000000000000
         C           -0.450648115679    -0.228426217674     1.718951996554    12.000000000000
         C           -1.882648115679    -0.257426217674     1.874951996554    12.000000000000
         C            0.097351884321    -1.117426217674     2.672951996554    12.000000000000
         C           -2.133648115679    -1.157426217674     2.842951996554    12.000000000000
         C            0.423351884321     0.471573782326     0.890951996554    12.000000000000
         C            1.798351884321     0.281573782326     1.039951996554    12.000000000000
         C            2.303351884321    -0.612426217674     1.983951996554    12.000000000000
         C            1.464351884321    -1.325426217674     2.814951996554    12.000000000000
         N           -0.960648115679    -1.689426217674     3.319951996554    14.003074004430
         H            0.037351884321     1.145573782326     0.144951996554     1.007825032230
         H            2.476351884321     0.844573782326     0.413951996554     1.007825032230
         H            3.374351884321    -0.738426217674     2.067951996554     1.007825032230
         H           -2.438648115679     1.498573782326     0.893951996554     1.007825032230
         H           -3.744648115679     0.741573782326     1.788951996554     1.007825032230
         H           -3.123648115679    -1.407426217674     3.188951996554     1.007825032230
         H           -0.881648115679    -2.492426217674     3.939951996554     1.007825032230
         H            1.842351884321    -2.015426217674     3.553951996554     1.007825032230
         H           -3.261988115679     0.103873782326     0.189771996554     1.007825032230

  Running in c1 symmetry.

  Rotational constants: A =      0.02370  B =      0.00932  C =      0.00819 [cm^-1]
  Rotational constants: A =    710.51503  B =    279.34505  C =    245.55748 [MHz]
  Nuclear repulsion = 1092.766968726562482

  Charge       = 0
  Multiplicity = 1
  Electrons    = 120
  Nalpha       = 60
  Nbeta        = 60

  ==> Algorithm <==

  SCF Algorithm Type is PK.
  DIIS enabled.
  MOM disabled.
  Fractional occupation disabled.
  Guess Type is SAD.
  Energy threshold   = 1.00e-06
  Density threshold  = 1.00e-10
  Integral threshold = 0.00e+00

  ==> Primary Basis <==

  Basis Set: CC-PVDZ
    Blend: CC-PVDZ
    Number of shells: 153
    Number of basis function: 323
    Number of Cartesian functions: 340
    Spherical Harmonics?: true
    Max angular momentum: 2

  ==> Pre-Iterations <==

   -------------------------------------------------------
    Irrep   Nso     Nmo     Nalpha   Nbeta   Ndocc  Nsocc
   -------------------------------------------------------
     A        323     323       0       0       0       0
   -------------------------------------------------------
    Total     323     323      60      60      60       0
   -------------------------------------------------------

  ==> Integral Setup <==

  Using integral reordering PK algorithm.
  Sizing the integral batches needed.
  Building batch lookup table.
   Calculation information:
      Number of atoms:                  34
      Number of AO shells:             153
      Number of primitives:            459
      Number of atomic orbitals:       340
      Number of basis functions:       323

      Integral cutoff                 1.00e-12
      Number of threads:                 1

	Batch   1 pq = [       0,    9405] index = [             0,44231715] size =     44231715
	Batch   2 pq = [    9405,   13301] index = [      44231715,88464951] size =     44233236
	Batch   3 pq = [   13301,   16290] index = [      88464951,132690195] size =     44225244
	Batch   4 pq = [   16290,   18810] index = [     132690195,176917455] size =     44227260
	Batch   5 pq = [   18810,   21030] index = [     176917455,221140965] size =     44223510
	Batch   6 pq = [   21030,   23037] index = [     221140965,265363203] size =     44222238
	Batch   7 pq = [   23037,   24883] index = [     265363203,309594286] size =     44231083
	Batch   8 pq = [   24883,   26601] index = [     309594286,353819901] size =     44225615
	Batch   9 pq = [   26601,   28214] index = [     353819901,398029005] size =     44209104
	Batch  10 pq = [   28214,   29740] index = [     398029005,442248670] size =     44219665
	Batch  11 pq = [   29740,   31191] index = [     442248670,486454836] size =     44206166
	Batch  12 pq = [   31191,   32578] index = [     486454836,530679331] size =     44224495
	Batch  13 pq = [   32578,   33908] index = [     530679331,574893186] size =     44213855
	Batch  14 pq = [   33908,   35188] index = [     574893186,619115266] size =     44222080
	Batch  15 pq = [   35188,   36423] index = [     619115266,663335676] size =     44220410
	Batch  16 pq = [   36423,   37617] index = [     663335676,707538153] size =     44202477
	Batch  17 pq = [   37617,   38775] index = [     707538153,751769700] size =     44231547
	Batch  18 pq = [   38775,   39899] index = [     751769700,795985050] size =     44215350
	Batch  19 pq = [   39899,   40992] index = [     795985050,840192528] size =     44207478
	Batch  20 pq = [   40992,   42057] index = [     840192528,884416653] size =     44224125
	Batch  21 pq = [   42057,   43095] index = [     884416653,928611060] size =     44194407
	Batch  22 pq = [   43095,   44109] index = [     928611060,972823995] size =     44212935
	Batch  23 pq = [   44109,   45100] index = [     972823995,1017027550] size =     44203555
	Batch  24 pq = [   45100,   46070] index = [    1017027550,1061245485] size =     44217935
	Batch  25 pq = [   46070,   47020] index = [    1061245485,1105463710] size =     44218225
	Batch  26 pq = [   47020,   47951] index = [    1105463710,1149673176] size =     44209466
	Batch  27 pq = [   47951,   48864] index = [    1149673176,1193869680] size =     44196504
	Batch  28 pq = [   48864,   49761] index = [    1193869680,1238103441] size =     44233761
	Batch  29 pq = [   49761,   50642] index = [    1238103441,1282331403] size =     44227962
	Batch  30 pq = [   50642,   51508] index = [    1282331403,1326562786] size =     44231383
	Batch  31 pq = [   51508,   52326] index = [    1326562786,1369031301] size =     42468515
  Task number: 124
  Buffer size: 11059200
  Buffer per thread: 2
  We computed 78775893 shell quartets total.
  Whereas there are 69401871 unique shell quartets.
    13.51 percent of shell quartets recomputed by reordering.

  ==> DiskJK: Disk-Based J/K Matrices <==

    J tasked:                  Yes
    K tasked:                  Yes
    wK tasked:                  No
    Memory [MiB]:              375
    Schwarz Cutoff:          1E-12

    OpenMP threads:              1

  Minimum eigenvalue in the overlap matrix is 2.1636090538E-04.
  Using Symmetric Orthogonalization.

  SCF Guess: Superposition of Atomic Densities via on-the-fly atomic UHF.

  ==> Iterations <==

                        Total Energy        Delta E     RMS |[F,P]|

   @RHF iter SAD:  -669.77183159396782   -6.69772e+02   0.00000e+00 
   @RHF iter   1:  -669.93864744820041   -1.66816e-01   2.18328e-03 DIIS
   @RHF iter   2:  -670.23371620284706   -2.95069e-01   9.66913e-04 DIIS
   @RHF iter   3:  -670.28519063794181   -5.14744e-02   2.59810e-04 DIIS
   @RHF iter   4:  -670.28996372879828   -4.77309e-03   1.14916e-04 DIIS
   @RHF iter   5:  -670.29074051334771   -7.76785e-04   1.68346e-05 DIIS
   @RHF iter   6:  -670.29077445442010   -3.39411e-05   7.62694e-06 DIIS
   @RHF iter   7:  -670.29078182939361   -7.37497e-06   3.08081e-06 DIIS
   @RHF iter   8:  -670.29078385731850   -2.02792e-06   1.37303e-06 DIIS
   @RHF iter   9:  -670.29078432410813   -4.66790e-07   6.04203e-07 DIIS
   @RHF iter  10:  -670.29078442067760   -9.65695e-08   2.60980e-07 DIIS
   @RHF iter  11:  -670.29078444183654   -2.11589e-08   1.03622e-07 DIIS
   @RHF iter  12:  -670.29078444444212   -2.60559e-09   4.06340e-08 DIIS
   @RHF iter  13:  -670.29078444473635   -2.94222e-10   1.12211e-08 DIIS
   @RHF iter  14:  -670.29078444475817   -2.18279e-11   4.44412e-09 DIIS
   @RHF iter  15:  -670.29078444476022   -2.04636e-12   1.98614e-09 DIIS
   @RHF iter  16:  -670.29078444475113    9.09495e-12   9.03513e-10 DIIS
   @RHF iter  17:  -670.29078444476045   -9.32232e-12   4.44317e-10 DIIS
   @RHF iter  18:  -670.29078444476181   -1.36424e-12   1.50304e-10 DIIS
   @RHF iter  19:  -670.29078444476181    0.00000e+00   6.10063e-11 DIIS
  Energy and wave function converged.


  ==> Post-Iterations <==

    Orbital Energies [Eh]
    ---------------------

    Doubly Occupied:                                                      

       1A    -15.593590     2A    -11.255489     3A    -11.255008  
       4A    -11.238083     5A    -11.232753     6A    -11.230286  
       7A    -11.228037     8A    -11.227272     9A    -11.225969  
      10A    -11.225320    11A    -11.222377    12A    -11.221757  
      13A    -11.221111    14A    -11.218482    15A    -11.211298  
      16A    -11.210840    17A    -11.209797    18A     -1.291401  
      19A     -1.157393    20A     -1.122029    21A     -1.070694  
      22A     -1.044218    23A     -1.015827    24A     -0.989681  
      25A     -0.982774    26A     -0.930741    27A     -0.928095  
      28A     -0.833668    29A     -0.824054    30A     -0.797867  
      31A     -0.796086    32A     -0.747997    33A     -0.713089  
      34A     -0.693081    35A     -0.657715    36A     -0.636081  
      37A     -0.632863    38A     -0.627473    39A     -0.598660  
      40A     -0.589181    41A     -0.584358    42A     -0.581134  
      43A     -0.573816    44A     -0.562663    45A     -0.562340  
      46A     -0.547275    47A     -0.534163    48A     -0.530694  
      49A     -0.520283    50A     -0.490909    51A     -0.486473  
      52A     -0.483200    53A     -0.481451    54A     -0.463385  
      55A     -0.454339    56A     -0.367270    57A     -0.334861  
      58A     -0.320897    59A     -0.287320    60A     -0.270980  

    Virtual:                                                              

      61A      0.133589    62A      0.137292    63A      0.143221  
      64A      0.174572    65A      0.176789    66A      0.186302  
      67A      0.195009    68A      0.200982    69A      0.214174  
      70A      0.215854    71A      0.228931    72A      0.241674  
      73A      0.245621    74A      0.252868    75A      0.258516  
      76A      0.269298    77A      0.272475    78A      0.287506  
      79A      0.298951    80A      0.300768    81A      0.306651  
      82A      0.336976    83A      0.371609    84A      0.378423  
      85A      0.382637    86A      0.393029    87A      0.413735  
      88A      0.428310    89A      0.450223    90A      0.458221  
      91A      0.465746    92A      0.476003    93A      0.484591  
      94A      0.489031    95A      0.501276    96A      0.509487  
      97A      0.518160    98A      0.570136    99A      0.592389  
     100A      0.609803   101A      0.618554   102A      0.629842  
     103A      0.639205   104A      0.644710   105A      0.673106  
     106A      0.675412   107A      0.686526   108A      0.693051  
     109A      0.701687   110A      0.704144   111A      0.713227  
     112A      0.726312   113A      0.730261   114A      0.735467  
     115A      0.739928   116A      0.743163   117A      0.748870  
     118A      0.754845   119A      0.757159   120A      0.759267  
     121A      0.766203   122A      0.769661   123A      0.775728  
     124A      0.793875   125A      0.795982   126A      0.801307  
     127A      0.806754   128A      0.822860   129A      0.837747  
     130A      0.850469   131A      0.855258   132A      0.858753  
     133A      0.866154   134A      0.873891   135A      0.877672  
     136A      0.891020   137A      0.895426   138A      0.899019  
     139A      0.901650   140A      0.908420   141A      0.913130  
     142A      0.921652   143A      0.926631   144A      0.936125  
     145A      0.942728   146A      0.952161   147A      0.952733  
     148A      0.964489   149A      0.973043   150A      0.981810  
     151A      0.990482   152A      1.006040   153A      1.015741  
     154A      1.023195   155A      1.049293   156A      1.056804  
     157A      1.068275   158A      1.085697   159A      1.101958  
     160A      1.126061   161A      1.132829   162A      1.146573  
     163A      1.147831   164A      1.151412   165A      1.160612  
     166A      1.163391   167A      1.199389   168A      1.206702  
     169A      1.209524   170A      1.218145   171A      1.235178  
     172A      1.241034   173A      1.244053   174A      1.257398  
     175A      1.264200   176A      1.265562   177A      1.273730  
     178A      1.284342   179A      1.294341   180A      1.299271  
     181A      1.305718   182A      1.314180   183A      1.331515  
     184A      1.339152   185A      1.344414   186A      1.346626  
     187A      1.356971   188A      1.370641   189A      1.392037  
     190A      1.414055   191A      1.458099   192A      1.475638  
     193A      1.500601   194A      1.530280   195A      1.540044  
     196A      1.556046   197A      1.566362   198A      1.585719  
     199A      1.611303   200A      1.613774   201A      1.633153  
     202A      1.646446   203A      1.661578   204A      1.678310  
     205A      1.695991   206A      1.708149   207A      1.714196  
     208A      1.742459   209A      1.747635   210A      1.756053  
     211A      1.767054   212A      1.776751   213A      1.788562  
     214A      1.799336   215A      1.806256   216A      1.815598  
     217A      1.837846   218A      1.842142   219A      1.848872  
     220A      1.869771   221A      1.893271   222A      1.894518  
     223A      1.896361   224A      1.905176   225A      1.909752  
     226A      1.914809   227A      1.920073   228A      1.924160  
     229A      1.931845   230A      1.941846   231A      1.949070  
     232A      1.954210   233A      1.960093   234A      1.962843  
     235A      1.966149   236A      1.974251   237A      1.983760  
     238A      1.995177   239A      2.006703   240A      2.016253  
     241A      2.021281   242A      2.034911   243A      2.047809  
     244A      2.066479   245A      2.079387   246A      2.081177  
     247A      2.090126   248A      2.092472   249A      2.107818  
     250A      2.114322   251A      2.117022   252A      2.128793  
     253A      2.132141   254A      2.139668   255A      2.154550  
     256A      2.169809   257A      2.173854   258A      2.179309  
     259A      2.189963   260A      2.194439   261A      2.203015  
     262A      2.211061   263A      2.255986   264A      2.265524  
     265A      2.269889   266A      2.281631   267A      2.295734  
     268A      2.297519   269A      2.317426   270A      2.320481  
     271A      2.335072   272A      2.345511   273A      2.356993  
     274A      2.361635   275A      2.384668   276A      2.414395  
     277A      2.435533   278A      2.442627   279A      2.463891  
     280A      2.475245   281A      2.489340   282A      2.519346  
     283A      2.551315   284A      2.557495   285A      2.595642  
     286A      2.614038   287A      2.643225   288A      2.650081  
     289A      2.673280   290A      2.693422   291A      2.734626  
     292A      2.747148   293A      2.761670   294A      2.774559  
     295A      2.775379   296A      2.780910   297A      2.792031  
     298A      2.809072   299A      2.822480   300A      2.832948  
     301A      2.859858   302A      2.866403   303A      2.880683  
     304A      2.890001   305A      2.900465   306A      2.937563  
     307A      2.993932   308A      3.013705   309A      3.025625  
     310A      3.042270   311A      3.046524   312A      3.069822  
     313A      3.096089   314A      3.140426   315A      3.181101  
     316A      3.225257   317A      3.225507   318A      3.321034  
     319A      3.327277   320A      3.398412   321A      3.745269  
     322A      3.970930   323A      4.003517  

    Final Occupation by Irrep:
              A 
    DOCC [    60 ]

  @RHF Final Energy:  -670.29078444476181

   => Energetics <=

    Nuclear Repulsion Energy =           1092.7669687265624816
    One-Electron Energy =               -3077.4236088922657473
    Two-Electron Energy =                1314.3658557209414539
    Total Energy =                       -670.2907844447618118

Computation Completed


Properties will be evaluated at   0.000000,   0.000000,   0.000000 [a0]

Properties computed using the SCF density matrix

  Nuclear Dipole Moment: [e a0]
     X:    -2.3929      Y:     0.2421      Z:    -8.2403

  Electronic Dipole Moment: [e a0]
     X:     2.0181      Y:    -0.8252      Z:     8.4299

  Dipole Moment: [e a0]
     X:    -0.3749      Y:    -0.5831      Z:     0.1896     Total:     0.7187

  Dipole Moment: [D]
     X:    -0.9528      Y:    -1.4821      Z:     0.4819     Total:     1.8267


*** tstop() called on ds3 at Tue Apr 28 15:17:06 2020
Module time:
	user time   =     704.52 seconds =      11.74 minutes
	system time =     219.86 seconds =       3.66 minutes
	total time  =       1542 seconds =      25.70 minutes
Total time:
	user time   =     704.52 seconds =      11.74 minutes
	system time =     219.86 seconds =       3.66 minutes
	total time  =       1542 seconds =      25.70 minutes
                                     G D M A

                                 by Anthony Stone

                           version 2.2.06, 22 June 2011

               Distributed Multipoles from Gaussian wavefunctions


Starting at 15:17:6 on 28 Apr 2020  


Using SCF density matrix from file ./SSI/SSI-217PHE-249TRP-1-dimer.test.17619.fchk


                         Distributed Multipole Analysis

Standard DMA

Positions and radii in angstrom
Multipole moments in atomic units, ea_0^k for rank k

C          x =  0.395352  y = -1.483426  z = -3.922048 angstrom
           Maximum rank =  0   Radius =  0.650 angstrom
                   Q00  =  -0.212865

C          x = -0.825648  y =  1.798574  z = -2.468048 angstrom
           Maximum rank =  0   Radius =  0.650 angstrom
                   Q00  =  -0.079801

C          x =  0.376352  y =  2.414574  z = -2.151048 angstrom
           Maximum rank =  0   Radius =  0.650 angstrom
                   Q00  =  -0.088423

C          x = -0.827648  y =  0.539574  z = -3.036048 angstrom
           Maximum rank =  0   Radius =  0.650 angstrom
                   Q00  =  -0.087107

C          x =  0.366352  y = -0.142426  z = -3.239048 angstrom
           Maximum rank =  0   Radius =  0.650 angstrom
                   Q00  =  -0.084277

C          x =  1.566352  y =  1.744574  z = -2.375048 angstrom
           Maximum rank =  0   Radius =  0.650 angstrom
                   Q00  =  -0.039192

C          x =  1.561352  y =  0.483574  z = -2.916048 angstrom
           Maximum rank =  0   Radius =  0.650 angstrom
                   Q00  =  -0.001223

H          x = -1.757648  y =  2.316574  z = -2.294048 angstrom
           Maximum rank =  0   Radius =  0.325 angstrom
                   Q00  =   0.062230

H          x =  0.387352  y =  3.410574  z = -1.733048 angstrom
           Maximum rank =  0   Radius =  0.325 angstrom
                   Q00  =   0.060427

H          x = -1.761648  y =  0.095574  z = -3.332048 angstrom
           Maximum rank =  0   Radius =  0.325 angstrom
                   Q00  =   0.054313

H          x =  2.505352  y =  2.222574  z = -2.132048 angstrom
           Maximum rank =  0   Radius =  0.325 angstrom
                   Q00  =   0.061564

H          x =  1.426352  y = -1.836426  z = -3.958048 angstrom
           Maximum rank =  0   Radius =  0.325 angstrom
                   Q00  =   0.095744

H          x =  0.072352  y = -1.346426  z = -4.951048 angstrom
           Maximum rank =  0   Radius =  0.325 angstrom
                   Q00  =   0.100874

H          x =  2.501352  y = -0.011426  z = -3.101048 angstrom
           Maximum rank =  0   Radius =  0.325 angstrom
                   Q00  =   0.057029

H          x = -0.208828  y = -2.278466  z = -3.460668 angstrom
           Maximum rank =  0   Radius =  0.325 angstrom
                   Q00  =   0.105798

C          x = -2.896648  y =  0.540574  z =  1.130952 angstrom
           Maximum rank =  0   Radius =  0.650 angstrom
                   Q00  =  -0.215669

C          x = -0.450648  y = -0.228426  z =  1.718952 angstrom
           Maximum rank =  0   Radius =  0.650 angstrom
                   Q00  =  -0.054943

C          x = -1.882648  y = -0.257426  z =  1.874952 angstrom
           Maximum rank =  0   Radius =  0.650 angstrom
                   Q00  =  -0.120932

C          x =  0.097352  y = -1.117426  z =  2.672952 angstrom
           Maximum rank =  0   Radius =  0.650 angstrom
                   Q00  =   0.299270

C          x = -2.133648  y = -1.157426  z =  2.842952 angstrom
           Maximum rank =  0   Radius =  0.650 angstrom
                   Q00  =   0.076350

C          x =  0.423352  y =  0.471574  z =  0.890952 angstrom
           Maximum rank =  0   Radius =  0.650 angstrom
                   Q00  =  -0.085058

C          x =  1.798352  y =  0.281574  z =  1.039952 angstrom
           Maximum rank =  0   Radius =  0.650 angstrom
                   Q00  =  -0.080777

C          x =  2.303352  y = -0.612426  z =  1.983952 angstrom
           Maximum rank =  0   Radius =  0.650 angstrom
                   Q00  =  -0.071105

C          x =  1.464352  y = -1.325426  z =  2.814952 angstrom
           Maximum rank =  0   Radius =  0.650 angstrom
                   Q00  =  -0.129117

N          x = -0.960648  y = -1.689426  z =  3.319952 angstrom
           Maximum rank =  0   Radius =  0.650 angstrom
                   Q00  =  -0.493362

H          x =  0.037352  y =  1.145574  z =  0.144952 angstrom
           Maximum rank =  0   Radius =  0.325 angstrom
                   Q00  =   0.079714

H          x =  2.476352  y =  0.844574  z =  0.413952 angstrom
           Maximum rank =  0   Radius =  0.325 angstrom
                   Q00  =   0.052768

H          x =  3.374352  y = -0.738426  z =  2.067952 angstrom
           Maximum rank =  0   Radius =  0.325 angstrom
                   Q00  =   0.058461

H          x = -2.438648  y =  1.498574  z =  0.893952 angstrom
           Maximum rank =  0   Radius =  0.325 angstrom
                   Q00  =   0.102564

H          x = -3.744648  y =  0.741574  z =  1.788952 angstrom
           Maximum rank =  0   Radius =  0.325 angstrom
                   Q00  =   0.101470

H          x = -3.123648  y = -1.407426  z =  3.188952 angstrom
           Maximum rank =  0   Radius =  0.325 angstrom
                   Q00  =   0.095296

H          x = -0.881648  y = -2.492426  z =  3.939952 angstrom
           Maximum rank =  0   Radius =  0.325 angstrom
                   Q00  =   0.212091

H          x =  1.842352  y = -2.015426  z =  3.553952 angstrom
           Maximum rank =  0   Radius =  0.325 angstrom
                   Q00  =   0.069971

H          x = -3.261988  y =  0.103874  z =  0.189772 angstrom
           Maximum rank =  0   Radius =  0.325 angstrom
                   Q00  =   0.097916

Total multipoles referred to origin at
           x =   0.000000,  y =    0.000000,  z =    0.000000 angstrom
                   Q00  =  -0.000000

Finished at 15:17:6 on 28 Apr 2020  

  DMA results are available in the Python driver through the
	  variable('DMA DISTRIBUTED MULTIPOLES')
  and
	  variable('DMA TOTAL MULTIPOLES')
  commands.


    Psi4 stopped on: Tuesday, 28 April 2020 03:17PM
    Psi4 wall time for execution: 0:25:41.93

*** Psi4 exiting successfully. Buy a developer a beer!
