
    -----------------------------------------------------------------------
          Psi4: An Open-Source Ab Initio Electronic Structure Package
                               Psi4 1.3.2 release

                         Git: Rev {HEAD} ecbda83 


    R. M. Parrish, L. A. Burns, D. G. A. Smith, A. C. Simmonett,
    A. E. DePrince III, E. G. Hohenstein, U. Bozkaya, A. Yu. Sokolov,
    R. Di Remigio, R. M. Richard, J. F. Gonthier, A. M. James,
    H. R. McAlexander, A. Kumar, M. Saitow, X. Wang, B. P. Pritchard,
    P. Verma, H. F. Schaefer III, K. Patkowski, R. A. King, E. F. Valeev,
    F. A. Evangelista, J. M. Turney, T. D. Crawford, and C. D. Sherrill,
    J. Chem. Theory Comput. 13(7) pp 3185--3197 (2017).
    (doi: 10.1021/acs.jctc.7b00174)


                         Additional Contributions by
    P. Kraus, H. Kruse, M. H. Lechner, M. C. Schieber, R. A. Shaw,
    A. Alenaizan, R. Galvelis, Z. L. Glick, S. Lehtola, and J. P. Misiewicz

    -----------------------------------------------------------------------


    Psi4 started on: Tuesday, 28 April 2020 03:41AM

    Process ID: 22911
    Host:       ds3
    PSIDATADIR: /theoryfs2/ds/metcalf/miniconda2/envs/tf2gpu/share/psi4
    Memory:     500.0 MiB
    Threads:    1
    
  ==> Input File <==

--------------------------------------------------------------------------
import numpy as np
set {scf_type pk
basis cc-pvdz
d_convergence 10
gdma_switch   0
gdma_limit    0
gdma_origin   [ 0.0,  0.0,  0.0 ]
}
molecule test {
    units Angstrom
    0 1
    --
    0 1
    C                1.789621489319806     2.172716975346594    -0.640493872531738
    C                1.925621489319806     3.210716975346595    -1.734493872531738
    H                0.751621489319806     1.903716975346595    -0.470493872531738
    H                2.360621489319806     1.283716975346595    -0.901493872531738
    H                2.191621489319806     2.571716975346594     0.288506127468262
    H                2.988621489319806     3.429716975346595    -1.851493872531738
    H                1.419212489319806     4.146966975346595    -1.457033872531738
    H                1.572845489319806     2.792691375346595    -2.688853872531737
    C                1.337621489319806    -1.299283024653405    -1.384493872531738
    C                0.986621489319806    -2.691283024653405    -1.929493872531738
    C                0.340621489319806    -0.839283024653405    -0.350493872531738
    C               -0.974378510680194    -0.574283024653405    -0.731493872531738
    C                0.695621489319806    -0.647283024653405     0.985506127468262
    C               -1.932378510680194    -0.130283024653405     0.183506127468262
    C               -0.252378510680194    -0.213283024653405     1.919506127468262
    C               -1.554378510680194     0.052716975346595     1.512506127468263
    O               -2.513378510680194     0.450716975346595     2.395506127468262
    H                2.336621489319806    -1.322283024653405    -0.948493872531738
    H                1.337621489319806    -0.574283024653405    -2.199493872531738
    H               -0.022378510680194    -2.622283024653405    -2.336493872531738
    H               -1.264378510680194    -0.714283024653405    -1.764493872531738
    H                1.713621489319806    -0.828283024653405     1.305506127468262
    H               -2.945378510680194     0.066716975346595    -0.139493872531738
    H                0.042621489319806    -0.093283024653405     2.947506127468262
    H               -3.353378510680194     0.619716975346595     1.946506127468262
    H                1.007155489319806    -3.442677024653405    -1.126383872531738
    H                1.625981489319806    -2.954163024653405    -2.785133872531738

}
e, wfn = energy('scf', return_wfn=True)
gdma(wfn)
dmavals = variable('DMA DISTRIBUTED MULTIPOLES')
charges = np.array(dmavals)
print(charges)
np.save('SSI-043ALA-077TYR-1-dimer.npy', np.array(charges))--------------------------------------------------------------------------

*** tstart() called on ds3
*** at Tue Apr 28 03:41:38 2020

   => Loading Basis Set <=

    Name: CC-PVDZ
    Role: ORBITAL
    Keyword: BASIS
    atoms 1-2, 9-16  entry C          line   138 file /theoryfs2/ds/metcalf/miniconda2/envs/tf2gpu/share/psi4/basis/cc-pvdz.gbs 
    atoms 3-8, 18-27 entry H          line    22 file /theoryfs2/ds/metcalf/miniconda2/envs/tf2gpu/share/psi4/basis/cc-pvdz.gbs 
    atoms 17         entry O          line   198 file /theoryfs2/ds/metcalf/miniconda2/envs/tf2gpu/share/psi4/basis/cc-pvdz.gbs 


         ---------------------------------------------------------
                                   SCF
               by Justin Turney, Rob Parrish, Andy Simmonett
                          and Daniel G. A. Smith
                              RHF Reference
                        1 Threads,    500 MiB Core
         ---------------------------------------------------------

  ==> Geometry <==

    Molecular point group: c1
    Full point group: C1

    Geometry (in Angstrom), charge = 0, multiplicity = 1:

       Center              X                  Y                   Z               Mass       
    ------------   -----------------  -----------------  -----------------  -----------------
         C            1.789621489320     2.172716975347    -0.640493872532    12.000000000000
         C            1.925621489320     3.210716975347    -1.734493872532    12.000000000000
         H            0.751621489320     1.903716975347    -0.470493872532     1.007825032230
         H            2.360621489320     1.283716975347    -0.901493872532     1.007825032230
         H            2.191621489320     2.571716975347     0.288506127468     1.007825032230
         H            2.988621489320     3.429716975347    -1.851493872532     1.007825032230
         H            1.419212489320     4.146966975347    -1.457033872532     1.007825032230
         H            1.572845489320     2.792691375347    -2.688853872532     1.007825032230
         C            1.337621489320    -1.299283024653    -1.384493872532    12.000000000000
         C            0.986621489320    -2.691283024653    -1.929493872532    12.000000000000
         C            0.340621489320    -0.839283024653    -0.350493872532    12.000000000000
         C           -0.974378510680    -0.574283024653    -0.731493872532    12.000000000000
         C            0.695621489320    -0.647283024653     0.985506127468    12.000000000000
         C           -1.932378510680    -0.130283024653     0.183506127468    12.000000000000
         C           -0.252378510680    -0.213283024653     1.919506127468    12.000000000000
         C           -1.554378510680     0.052716975347     1.512506127468    12.000000000000
         O           -2.513378510680     0.450716975347     2.395506127468    15.994914619570
         H            2.336621489320    -1.322283024653    -0.948493872532     1.007825032230
         H            1.337621489320    -0.574283024653    -2.199493872532     1.007825032230
         H           -0.022378510680    -2.622283024653    -2.336493872532     1.007825032230
         H           -1.264378510680    -0.714283024653    -1.764493872532     1.007825032230
         H            1.713621489320    -0.828283024653     1.305506127468     1.007825032230
         H           -2.945378510680     0.066716975347    -0.139493872532     1.007825032230
         H            0.042621489320    -0.093283024653     2.947506127468     1.007825032230
         H           -3.353378510680     0.619716975347     1.946506127468     1.007825032230
         H            1.007155489320    -3.442677024653    -1.126383872532     1.007825032230
         H            1.625981489320    -2.954163024653    -2.785133872532     1.007825032230

  Running in c1 symmetry.

  Rotational constants: A =      0.03405  B =      0.02374  C =      0.01682 [cm^-1]
  Rotational constants: A =   1020.64523  B =    711.82922  C =    504.12163 [MHz]
  Nuclear repulsion =  595.832223460516616

  Charge       = 0
  Multiplicity = 1
  Electrons    = 84
  Nalpha       = 42
  Nbeta        = 42

  ==> Algorithm <==

  SCF Algorithm Type is PK.
  DIIS enabled.
  MOM disabled.
  Fractional occupation disabled.
  Guess Type is SAD.
  Energy threshold   = 1.00e-06
  Density threshold  = 1.00e-10
  Integral threshold = 0.00e+00

  ==> Primary Basis <==

  Basis Set: CC-PVDZ
    Blend: CC-PVDZ
    Number of shells: 114
    Number of basis function: 234
    Number of Cartesian functions: 245
    Spherical Harmonics?: true
    Max angular momentum: 2

  ==> Pre-Iterations <==

   -------------------------------------------------------
    Irrep   Nso     Nmo     Nalpha   Nbeta   Ndocc  Nsocc
   -------------------------------------------------------
     A        234     234       0       0       0       0
   -------------------------------------------------------
    Total     234     234      42      42      42       0
   -------------------------------------------------------

  ==> Integral Setup <==

  Using integral reordering PK algorithm.
  Sizing the integral batches needed.
  Building batch lookup table.
   Calculation information:
      Number of atoms:                  27
      Number of AO shells:             114
      Number of primitives:            322
      Number of atomic orbitals:       245
      Number of basis functions:       234

      Integral cutoff                 1.00e-12
      Number of threads:                 1

	Batch   1 pq = [       0,    9405] index = [             0,44231715] size =     44231715
	Batch   2 pq = [    9405,   13301] index = [      44231715,88464951] size =     44233236
	Batch   3 pq = [   13301,   16290] index = [      88464951,132690195] size =     44225244
	Batch   4 pq = [   16290,   18810] index = [     132690195,176917455] size =     44227260
	Batch   5 pq = [   18810,   21030] index = [     176917455,221140965] size =     44223510
	Batch   6 pq = [   21030,   23037] index = [     221140965,265363203] size =     44222238
	Batch   7 pq = [   23037,   24883] index = [     265363203,309594286] size =     44231083
	Batch   8 pq = [   24883,   26601] index = [     309594286,353819901] size =     44225615
	Batch   9 pq = [   26601,   27495] index = [     353819901,378001260] size =     24181359
  Task number: 35
  Buffer size: 11059200
  Buffer per thread: 2
  We computed 21604244 shell quartets total.
  Whereas there are 21487290 unique shell quartets.
     0.54 percent of shell quartets recomputed by reordering.

  ==> DiskJK: Disk-Based J/K Matrices <==

    J tasked:                  Yes
    K tasked:                  Yes
    wK tasked:                  No
    Memory [MiB]:              375
    Schwarz Cutoff:          1E-12

    OpenMP threads:              1

  Minimum eigenvalue in the overlap matrix is 3.2226899617E-04.
  Using Symmetric Orthogonalization.

  SCF Guess: Superposition of Atomic Densities via on-the-fly atomic UHF.

  ==> Iterations <==

                        Total Energy        Delta E     RMS |[F,P]|

   @RHF iter SAD:  -461.74115627877359   -4.61741e+02   0.00000e+00 
   @RHF iter   1:  -462.60229087629318   -8.61135e-01   2.81276e-03 DIIS
   @RHF iter   2:  -462.84318899696007   -2.40898e-01   1.19702e-03 DIIS
   @RHF iter   3:  -462.88284302844249   -3.96540e-02   2.78764e-04 DIIS
   @RHF iter   4:  -462.88616216633352   -3.31914e-03   1.21907e-04 DIIS
   @RHF iter   5:  -462.88663648213981   -4.74316e-04   1.94640e-05 DIIS
   @RHF iter   6:  -462.88665650024279   -2.00181e-05   5.73037e-06 DIIS
   @RHF iter   7:  -462.88665809089969   -1.59066e-06   2.04541e-06 DIIS
   @RHF iter   8:  -462.88665831818707   -2.27287e-07   6.79842e-07 DIIS
   @RHF iter   9:  -462.88665835133679   -3.31497e-08   2.26232e-07 DIIS
   @RHF iter  10:  -462.88665835560380   -4.26701e-09   9.63338e-08 DIIS
   @RHF iter  11:  -462.88665835675067   -1.14687e-09   4.54936e-08 DIIS
   @RHF iter  12:  -462.88665835705734   -3.06670e-10   2.30119e-08 DIIS
   @RHF iter  13:  -462.88665835712720   -6.98606e-11   8.11755e-09 DIIS
   @RHF iter  14:  -462.88665835713363   -6.42331e-12   2.04546e-09 DIIS
   @RHF iter  15:  -462.88665835713743   -3.80851e-12   6.77728e-10 DIIS
   @RHF iter  16:  -462.88665835713562    1.81899e-12   2.15287e-10 DIIS
   @RHF iter  17:  -462.88665835713488    7.38964e-13   8.42524e-11 DIIS
  Energy and wave function converged.


  ==> Post-Iterations <==

    Orbital Energies [Eh]
    ---------------------

    Doubly Occupied:                                                      

       1A    -20.582364     2A    -11.300493     3A    -11.239351  
       4A    -11.239284     5A    -11.235026     6A    -11.230753  
       7A    -11.230094     8A    -11.229312     9A    -11.223152  
      10A    -11.212883    11A    -11.204386    12A     -1.398951  
      13A     -1.151540    14A     -1.058742    15A     -1.017284  
      16A     -1.014875    17A     -0.974911    18A     -0.860380  
      19A     -0.845013    20A     -0.828472    21A     -0.791396  
      22A     -0.730330    23A     -0.674180    24A     -0.645117  
      25A     -0.614011    26A     -0.599552    27A     -0.596168  
      28A     -0.591374    29A     -0.584874    30A     -0.583369  
      31A     -0.573719    32A     -0.539133    33A     -0.521816  
      34A     -0.500836    35A     -0.495043    36A     -0.482817  
      37A     -0.476688    38A     -0.476056    39A     -0.473701  
      40A     -0.457566    41A     -0.338004    42A     -0.301274  

    Virtual:                                                              

      43A      0.127202    44A      0.152691    45A      0.177681  
      46A      0.181157    47A      0.195818    48A      0.204063  
      49A      0.217626    50A      0.236680    51A      0.245242  
      52A      0.256717    53A      0.259025    54A      0.266223  
      55A      0.274588    56A      0.282387    57A      0.294065  
      58A      0.315028    59A      0.319530    60A      0.323865  
      61A      0.356102    62A      0.382504    63A      0.401271  
      64A      0.415111    65A      0.426699    66A      0.468652  
      67A      0.487485    68A      0.497293    69A      0.518928  
      70A      0.573485    71A      0.594254    72A      0.604365  
      73A      0.607307    74A      0.620697    75A      0.640604  
      76A      0.647424    77A      0.653854    78A      0.668457  
      79A      0.679599    80A      0.705351    81A      0.719292  
      82A      0.726210    83A      0.736044    84A      0.743444  
      85A      0.752399    86A      0.760090    87A      0.786435  
      88A      0.802595    89A      0.821879    90A      0.828866  
      91A      0.843957    92A      0.860824    93A      0.872753  
      94A      0.882659    95A      0.886676    96A      0.892063  
      97A      0.894872    98A      0.898641    99A      0.899506  
     100A      0.911645   101A      0.915930   102A      0.924167  
     103A      0.931127   104A      0.943844   105A      0.954789  
     106A      0.964762   107A      0.971123   108A      0.990725  
     109A      0.997154   110A      0.999461   111A      1.012657  
     112A      1.036665   113A      1.054327   114A      1.090623  
     115A      1.115974   116A      1.135047   117A      1.136815  
     118A      1.150491   119A      1.168856   120A      1.192068  
     121A      1.209503   122A      1.237677   123A      1.246247  
     124A      1.272205   125A      1.276232   126A      1.284721  
     127A      1.302642   128A      1.304260   129A      1.319426  
     130A      1.349786   131A      1.364082   132A      1.382393  
     133A      1.411616   134A      1.443355   135A      1.485001  
     136A      1.487358   137A      1.495921   138A      1.518311  
     139A      1.536849   140A      1.588078   141A      1.596991  
     142A      1.621332   143A      1.639519   144A      1.675500  
     145A      1.681052   146A      1.685410   147A      1.710097  
     148A      1.742075   149A      1.757146   150A      1.777481  
     151A      1.794340   152A      1.838740   153A      1.846934  
     154A      1.869134   155A      1.875144   156A      1.876255  
     157A      1.887863   158A      1.894685   159A      1.906348  
     160A      1.912360   161A      1.918711   162A      1.925819  
     163A      1.934817   164A      1.947328   165A      1.951306  
     166A      1.957846   167A      1.969594   168A      1.974936  
     169A      1.981164   170A      1.982355   171A      1.988802  
     172A      2.008039   173A      2.027378   174A      2.029384  
     175A      2.039141   176A      2.058565   177A      2.065436  
     178A      2.074308   179A      2.094884   180A      2.100172  
     181A      2.118312   182A      2.122041   183A      2.135462  
     184A      2.170909   185A      2.191471   186A      2.200012  
     187A      2.241070   188A      2.254529   189A      2.269166  
     190A      2.300949   191A      2.309863   192A      2.318284  
     193A      2.360055   194A      2.365036   195A      2.371890  
     196A      2.432119   197A      2.449766   198A      2.462530  
     199A      2.481906   200A      2.485596   201A      2.499444  
     202A      2.524601   203A      2.531793   204A      2.544239  
     205A      2.575448   206A      2.583698   207A      2.595637  
     208A      2.636818   209A      2.652939   210A      2.748806  
     211A      2.766802   212A      2.769641   213A      2.792668  
     214A      2.811715   215A      2.821936   216A      2.851866  
     217A      2.860168   218A      2.876083   219A      2.880701  
     220A      2.905508   221A      2.957638   222A      2.968038  
     223A      2.993215   224A      3.013560   225A      3.020554  
     226A      3.093723   227A      3.166292   228A      3.255192  
     229A      3.275398   230A      3.341285   231A      3.581161  
     232A      3.663584   233A      3.977235   234A      4.178847  

    Final Occupation by Irrep:
              A 
    DOCC [    42 ]

  @RHF Final Energy:  -462.88665835713488

   => Energetics <=

    Nuclear Repulsion Energy =            595.8322234605166159
    One-Electron Energy =               -1809.1891809434832794
    Two-Electron Energy =                 750.4702991258318434
    Total Energy =                       -462.8866583571348201

Computation Completed


Properties will be evaluated at   0.000000,   0.000000,   0.000000 [a0]

Properties computed using the SCF density matrix

  Nuclear Dipole Moment: [e a0]
     X:    11.0151      Y:     3.9990      Z:   -11.4081

  Electronic Dipole Moment: [e a0]
     X:   -11.2694      Y:    -4.0558      Z:    10.9124

  Dipole Moment: [e a0]
     X:    -0.2543      Y:    -0.0568      Z:    -0.4957     Total:     0.5600

  Dipole Moment: [D]
     X:    -0.6464      Y:    -0.1445      Z:    -1.2600     Total:     1.4235


*** tstop() called on ds3 at Tue Apr 28 03:45:03 2020
Module time:
	user time   =     157.24 seconds =       2.62 minutes
	system time =      53.42 seconds =       0.89 minutes
	total time  =        205 seconds =       3.42 minutes
Total time:
	user time   =     157.24 seconds =       2.62 minutes
	system time =      53.42 seconds =       0.89 minutes
	total time  =        205 seconds =       3.42 minutes
                                     G D M A

                                 by Anthony Stone

                           version 2.2.06, 22 June 2011

               Distributed Multipoles from Gaussian wavefunctions


Starting at 3:45:4 on 28 Apr 2020   


Using SCF density matrix from file ./SSI/SSI-043ALA-077TYR-1-dimer.test.22911.fchk


                         Distributed Multipole Analysis

Standard DMA

Positions and radii in angstrom
Multipole moments in atomic units, ea_0^k for rank k

C          x =  1.789621  y =  2.172717  z = -0.640494 angstrom
           Maximum rank =  0   Radius =  0.650 angstrom
                   Q00  =  -0.223108

C          x =  1.925621  y =  3.210717  z = -1.734494 angstrom
           Maximum rank =  0   Radius =  0.650 angstrom
                   Q00  =  -0.240679

H          x =  0.751621  y =  1.903717  z = -0.470494 angstrom
           Maximum rank =  0   Radius =  0.325 angstrom
                   Q00  =   0.088947

H          x =  2.360621  y =  1.283717  z = -0.901494 angstrom
           Maximum rank =  0   Radius =  0.325 angstrom
                   Q00  =   0.070249

H          x =  2.191621  y =  2.571717  z =  0.288506 angstrom
           Maximum rank =  0   Radius =  0.325 angstrom
                   Q00  =   0.072483

H          x =  2.988621  y =  3.429717  z = -1.851494 angstrom
           Maximum rank =  0   Radius =  0.325 angstrom
                   Q00  =   0.070973

H          x =  1.419212  y =  4.146967  z = -1.457034 angstrom
           Maximum rank =  0   Radius =  0.325 angstrom
                   Q00  =   0.079560

H          x =  1.572845  y =  2.792691  z = -2.688854 angstrom
           Maximum rank =  0   Radius =  0.325 angstrom
                   Q00  =   0.072747

C          x =  1.337621  y = -1.299283  z = -1.384494 angstrom
           Maximum rank =  0   Radius =  0.650 angstrom
                   Q00  =  -0.047399

C          x =  0.986621  y = -2.691283  z = -1.929494 angstrom
           Maximum rank =  0   Radius =  0.650 angstrom
                   Q00  =  -0.229571

C          x =  0.340621  y = -0.839283  z = -0.350494 angstrom
           Maximum rank =  0   Radius =  0.650 angstrom
                   Q00  =  -0.135579

C          x = -0.974379  y = -0.574283  z = -0.731494 angstrom
           Maximum rank =  0   Radius =  0.650 angstrom
                   Q00  =   0.041067

C          x =  0.695621  y = -0.647283  z =  0.985506 angstrom
           Maximum rank =  0   Radius =  0.650 angstrom
                   Q00  =  -0.029711

C          x = -1.932379  y = -0.130283  z =  0.183506 angstrom
           Maximum rank =  0   Radius =  0.650 angstrom
                   Q00  =  -0.188734

C          x = -0.252379  y = -0.213283  z =  1.919506 angstrom
           Maximum rank =  0   Radius =  0.650 angstrom
                   Q00  =  -0.113238

C          x = -1.554379  y =  0.052717  z =  1.512506 angstrom
           Maximum rank =  0   Radius =  0.650 angstrom
                   Q00  =   0.282071

O          x = -2.513379  y =  0.450717  z =  2.395506 angstrom
           Maximum rank =  0   Radius =  0.650 angstrom
                   Q00  =  -0.641666

H          x =  2.336621  y = -1.322283  z = -0.948494 angstrom
           Maximum rank =  0   Radius =  0.325 angstrom
                   Q00  =   0.064774

H          x =  1.337621  y = -0.574283  z = -2.199494 angstrom
           Maximum rank =  0   Radius =  0.325 angstrom
                   Q00  =   0.065579

H          x = -0.022379  y = -2.622283  z = -2.336494 angstrom
           Maximum rank =  0   Radius =  0.325 angstrom
                   Q00  =   0.075806

H          x = -1.264379  y = -0.714283  z = -1.764494 angstrom
           Maximum rank =  0   Radius =  0.325 angstrom
                   Q00  =   0.067205

H          x =  1.713621  y = -0.828283  z =  1.305506 angstrom
           Maximum rank =  0   Radius =  0.325 angstrom
                   Q00  =   0.066257

H          x = -2.945379  y =  0.066717  z = -0.139494 angstrom
           Maximum rank =  0   Radius =  0.325 angstrom
                   Q00  =   0.071874

H          x =  0.042621  y = -0.093283  z =  2.947506 angstrom
           Maximum rank =  0   Radius =  0.325 angstrom
                   Q00  =   0.080665

H          x = -3.353379  y =  0.619717  z =  1.946506 angstrom
           Maximum rank =  0   Radius =  0.325 angstrom
                   Q00  =   0.408353

H          x =  1.007155  y = -3.442677  z = -1.126384 angstrom
           Maximum rank =  0   Radius =  0.325 angstrom
                   Q00  =   0.088165

H          x =  1.625981  y = -2.954163  z = -2.785134 angstrom
           Maximum rank =  0   Radius =  0.325 angstrom
                   Q00  =   0.082910

Total multipoles referred to origin at
           x =   0.000000,  y =    0.000000,  z =    0.000000 angstrom
                   Q00  =  -0.000000

Finished at 3:45:4 on 28 Apr 2020   

  DMA results are available in the Python driver through the
	  variable('DMA DISTRIBUTED MULTIPOLES')
  and
	  variable('DMA TOTAL MULTIPOLES')
  commands.


    Psi4 stopped on: Tuesday, 28 April 2020 03:45AM
    Psi4 wall time for execution: 0:03:25.73

*** Psi4 exiting successfully. Buy a developer a beer!
