
    -----------------------------------------------------------------------
          Psi4: An Open-Source Ab Initio Electronic Structure Package
                               Psi4 1.3.2 release

                         Git: Rev {HEAD} ecbda83 


    R. M. Parrish, L. A. Burns, D. G. A. Smith, A. C. Simmonett,
    A. E. DePrince III, E. G. Hohenstein, U. Bozkaya, A. Yu. Sokolov,
    R. Di Remigio, R. M. Richard, J. F. Gonthier, A. M. James,
    H. R. McAlexander, A. Kumar, M. Saitow, X. Wang, B. P. Pritchard,
    P. Verma, H. F. Schaefer III, K. Patkowski, R. A. King, E. F. Valeev,
    F. A. Evangelista, J. M. Turney, T. D. Crawford, and C. D. Sherrill,
    J. Chem. Theory Comput. 13(7) pp 3185--3197 (2017).
    (doi: 10.1021/acs.jctc.7b00174)


                         Additional Contributions by
    P. Kraus, H. Kruse, M. H. Lechner, M. C. Schieber, R. A. Shaw,
    A. Alenaizan, R. Galvelis, Z. L. Glick, S. Lehtola, and J. P. Misiewicz

    -----------------------------------------------------------------------


    Psi4 started on: Sunday, 26 April 2020 05:07PM

    Process ID: 17581
    Host:       ds3
    PSIDATADIR: /theoryfs2/ds/metcalf/miniconda2/envs/tf2gpu/share/psi4
    Memory:     500.0 MiB
    Threads:    1
    
  ==> Input File <==

--------------------------------------------------------------------------
import numpy as np
set {scf_type pk
basis cc-pvdz
d_convergence 10
gdma_switch   0
gdma_limit    0
gdma_origin   [ 0.0,  0.0,  0.0 ]
}
molecule test {
    units Angstrom
    0 1
    --
    0 1
    C               -2.766754175752836     1.896990519553047    -1.771880638765125
    C               -0.469754175752837    -0.239009480446953     0.289119361234875
    C               -0.967754175752837     0.176990519553047    -0.968880638765125
    C               -1.955754175752836     1.186990519553047    -0.728880638765125
    C               -2.037754175752837     1.322990519553047     0.621119361234875
    C                0.502245824247163    -1.213009480446953     0.409119361234875
    C                0.993245824247163    -1.777009480446953    -0.752880638765125
    C                0.535245824247163    -1.373009480446953    -2.002880638765125
    C               -0.448754175752837    -0.410009480446953    -2.124880638765125
    N               -1.149754175752837     0.473990519553047     1.239119361234875
    H                0.840245824247163    -1.539009480446953     1.379119361234875
    H                1.766245824247163    -2.527009480446953    -0.697880638765125
    H               -1.055754175752837     0.396990519553047     2.247119361234875
    H                0.958245824247163    -1.813009480446953    -2.894880638765125
    H               -2.712754175752837     1.999990519553047     1.135119361234875
    H               -0.793754175752837    -0.097009480446953    -3.098880638765125
    H               -2.102754175752837     2.275990519553047    -2.550880638765125
    H               -3.261754175752837     2.745990519553047    -1.308880638765125
    H               -3.504531175752836     1.216242519553047    -2.221621638765125
    C                3.413245824247164    -0.836009480446953     2.201119361234875
    C                3.596245824247164     0.559990519553047     2.795119361234875
    H                3.174245824247163    -0.780009480446953     1.141119361234875
    H                4.339245824247163    -1.393009480446953     2.309119361234875
    H                2.626245824247163    -1.357009480446953     2.741119361234875
    H                4.447245824247163     1.038990519553047     2.315119361234875
    H                3.856245824247163     0.428990519553047     3.843119361234875
    H                2.710655824247163     1.200739519553047     2.671981361234875

}
e, wfn = energy('scf', return_wfn=True)
gdma(wfn)
dmavals = variable('DMA DISTRIBUTED MULTIPOLES')
charges = np.array(dmavals)
print(charges)
np.save('SSI-040TRP-121ILE-2-dimer.npy', np.array(charges))--------------------------------------------------------------------------

*** tstart() called on ds3
*** at Sun Apr 26 17:07:11 2020

   => Loading Basis Set <=

    Name: CC-PVDZ
    Role: ORBITAL
    Keyword: BASIS
    atoms 1-9, 20-21   entry C          line   138 file /theoryfs2/ds/metcalf/miniconda2/envs/tf2gpu/share/psi4/basis/cc-pvdz.gbs 
    atoms 10           entry N          line   168 file /theoryfs2/ds/metcalf/miniconda2/envs/tf2gpu/share/psi4/basis/cc-pvdz.gbs 
    atoms 11-19, 22-27 entry H          line    22 file /theoryfs2/ds/metcalf/miniconda2/envs/tf2gpu/share/psi4/basis/cc-pvdz.gbs 


         ---------------------------------------------------------
                                   SCF
               by Justin Turney, Rob Parrish, Andy Simmonett
                          and Daniel G. A. Smith
                              RHF Reference
                        1 Threads,    500 MiB Core
         ---------------------------------------------------------

  ==> Geometry <==

    Molecular point group: c1
    Full point group: C1

    Geometry (in Angstrom), charge = 0, multiplicity = 1:

       Center              X                  Y                   Z               Mass       
    ------------   -----------------  -----------------  -----------------  -----------------
         C           -2.766754175753     1.896990519553    -1.771880638765    12.000000000000
         C           -0.469754175753    -0.239009480447     0.289119361235    12.000000000000
         C           -0.967754175753     0.176990519553    -0.968880638765    12.000000000000
         C           -1.955754175753     1.186990519553    -0.728880638765    12.000000000000
         C           -2.037754175753     1.322990519553     0.621119361235    12.000000000000
         C            0.502245824247    -1.213009480447     0.409119361235    12.000000000000
         C            0.993245824247    -1.777009480447    -0.752880638765    12.000000000000
         C            0.535245824247    -1.373009480447    -2.002880638765    12.000000000000
         C           -0.448754175753    -0.410009480447    -2.124880638765    12.000000000000
         N           -1.149754175753     0.473990519553     1.239119361235    14.003074004430
         H            0.840245824247    -1.539009480447     1.379119361235     1.007825032230
         H            1.766245824247    -2.527009480447    -0.697880638765     1.007825032230
         H           -1.055754175753     0.396990519553     2.247119361235     1.007825032230
         H            0.958245824247    -1.813009480447    -2.894880638765     1.007825032230
         H           -2.712754175753     1.999990519553     1.135119361235     1.007825032230
         H           -0.793754175753    -0.097009480447    -3.098880638765     1.007825032230
         H           -2.102754175753     2.275990519553    -2.550880638765     1.007825032230
         H           -3.261754175753     2.745990519553    -1.308880638765     1.007825032230
         H           -3.504531175753     1.216242519553    -2.221621638765     1.007825032230
         C            3.413245824247    -0.836009480447     2.201119361235    12.000000000000
         C            3.596245824247     0.559990519553     2.795119361235    12.000000000000
         H            3.174245824247    -0.780009480447     1.141119361235     1.007825032230
         H            4.339245824247    -1.393009480447     2.309119361235     1.007825032230
         H            2.626245824247    -1.357009480447     2.741119361235     1.007825032230
         H            4.447245824247     1.038990519553     2.315119361235     1.007825032230
         H            3.856245824247     0.428990519553     3.843119361235     1.007825032230
         H            2.710655824247     1.200739519553     2.671981361235     1.007825032230

  Running in c1 symmetry.

  Rotational constants: A =      0.04460  B =      0.01716  C =      0.01363 [cm^-1]
  Rotational constants: A =   1337.16131  B =    514.34157  C =    408.75828 [MHz]
  Nuclear repulsion =  652.524067389504012

  Charge       = 0
  Multiplicity = 1
  Electrons    = 88
  Nalpha       = 44
  Nbeta        = 44

  ==> Algorithm <==

  SCF Algorithm Type is PK.
  DIIS enabled.
  MOM disabled.
  Fractional occupation disabled.
  Guess Type is SAD.
  Energy threshold   = 1.00e-06
  Density threshold  = 1.00e-10
  Integral threshold = 0.00e+00

  ==> Primary Basis <==

  Basis Set: CC-PVDZ
    Blend: CC-PVDZ
    Number of shells: 117
    Number of basis function: 243
    Number of Cartesian functions: 255
    Spherical Harmonics?: true
    Max angular momentum: 2

  ==> Pre-Iterations <==

   -------------------------------------------------------
    Irrep   Nso     Nmo     Nalpha   Nbeta   Ndocc  Nsocc
   -------------------------------------------------------
     A        243     243       0       0       0       0
   -------------------------------------------------------
    Total     243     243      44      44      44       0
   -------------------------------------------------------

  ==> Integral Setup <==

  Using integral reordering PK algorithm.
  Sizing the integral batches needed.
  Building batch lookup table.
   Calculation information:
      Number of atoms:                  27
      Number of AO shells:             117
      Number of primitives:            339
      Number of atomic orbitals:       255
      Number of basis functions:       243

      Integral cutoff                 1.00e-12
      Number of threads:                 1

	Batch   1 pq = [       0,    9405] index = [             0,44231715] size =     44231715
	Batch   2 pq = [    9405,   13301] index = [      44231715,88464951] size =     44233236
	Batch   3 pq = [   13301,   16290] index = [      88464951,132690195] size =     44225244
	Batch   4 pq = [   16290,   18810] index = [     132690195,176917455] size =     44227260
	Batch   5 pq = [   18810,   21030] index = [     176917455,221140965] size =     44223510
	Batch   6 pq = [   21030,   23037] index = [     221140965,265363203] size =     44222238
	Batch   7 pq = [   23037,   24883] index = [     265363203,309594286] size =     44231083
	Batch   8 pq = [   24883,   26601] index = [     309594286,353819901] size =     44225615
	Batch   9 pq = [   26601,   28214] index = [     353819901,398029005] size =     44209104
	Batch  10 pq = [   28214,   29646] index = [     398029005,439457481] size =     41428476
  Task number: 40
  Buffer size: 11059200
  Buffer per thread: 2
  We computed 20940586 shell quartets total.
  Whereas there are 23829156 unique shell quartets.

  ==> DiskJK: Disk-Based J/K Matrices <==

    J tasked:                  Yes
    K tasked:                  Yes
    wK tasked:                  No
    Memory [MiB]:              375
    Schwarz Cutoff:          1E-12

    OpenMP threads:              1

  Minimum eigenvalue in the overlap matrix is 2.3259900059E-04.
  Using Symmetric Orthogonalization.

  SCF Guess: Superposition of Atomic Densities via on-the-fly atomic UHF.

  ==> Iterations <==

                        Total Energy        Delta E     RMS |[F,P]|

   @RHF iter SAD:  -479.15509199028759   -4.79155e+02   0.00000e+00 
   @RHF iter   1:  -479.48484253856304   -3.29751e-01   2.62468e-03 DIIS
   @RHF iter   2:  -479.71982397089761   -2.34981e-01   1.16958e-03 DIIS
   @RHF iter   3:  -479.76240584289059   -4.25819e-02   3.04924e-04 DIIS
   @RHF iter   4:  -479.76624362125506   -3.83778e-03   1.39475e-04 DIIS
   @RHF iter   5:  -479.76689255626127   -6.48935e-04   2.00646e-05 DIIS
   @RHF iter   6:  -479.76692135476759   -2.87985e-05   9.25440e-06 DIIS
   @RHF iter   7:  -479.76692717757533   -5.82281e-06   3.74285e-06 DIIS
   @RHF iter   8:  -479.76692875344679   -1.57587e-06   1.45278e-06 DIIS
   @RHF iter   9:  -479.76692905353264   -3.00086e-07   6.24910e-07 DIIS
   @RHF iter  10:  -479.76692911064805   -5.71154e-08   2.85024e-07 DIIS
   @RHF iter  11:  -479.76692912493218   -1.42841e-08   1.09389e-07 DIIS
   @RHF iter  12:  -479.76692912705630   -2.12412e-09   3.64542e-08 DIIS
   @RHF iter  13:  -479.76692912721666   -1.60355e-10   9.62979e-09 DIIS
   @RHF iter  14:  -479.76692912722353   -6.87805e-12   4.01021e-09 DIIS
   @RHF iter  15:  -479.76692912722774   -4.20641e-12   2.00905e-09 DIIS
   @RHF iter  16:  -479.76692912722706    6.82121e-13   9.24111e-10 DIIS
   @RHF iter  17:  -479.76692912723104   -3.97904e-12   3.25582e-10 DIIS
   @RHF iter  18:  -479.76692912723166   -6.25278e-13   1.51390e-10 DIIS
   @RHF iter  19:  -479.76692912723479   -3.12639e-12   4.65724e-11 DIIS
  Energy and wave function converged.


  ==> Post-Iterations <==

    Orbital Energies [Eh]
    ---------------------

    Doubly Occupied:                                                      

       1A    -15.599919     2A    -11.262919     3A    -11.261202  
       4A    -11.227067     5A    -11.226476     6A    -11.226464  
       7A    -11.225075     8A    -11.217559     9A    -11.217474  
      10A    -11.217177    11A    -11.215572    12A    -11.214054  
      13A     -1.295055    14A     -1.131196    15A     -1.073514  
      16A     -1.019323    17A     -0.998755    18A     -0.987687  
      19A     -0.931059    20A     -0.841441    21A     -0.836340  
      22A     -0.804120    23A     -0.752383    24A     -0.719038  
      25A     -0.661812    26A     -0.642565    27A     -0.606712  
      28A     -0.599734    29A     -0.597092    30A     -0.592142  
      31A     -0.588967    32A     -0.567511    33A     -0.552612  
      34A     -0.536638    35A     -0.527419    36A     -0.499836  
      37A     -0.494717    38A     -0.487318    39A     -0.485590  
      40A     -0.468419    41A     -0.461852    42A     -0.371983  
      43A     -0.295859    44A     -0.274468  

    Virtual:                                                              

      45A      0.127569    46A      0.166981    47A      0.170490  
      48A      0.188856    49A      0.195749    50A      0.208904  
      51A      0.223047    52A      0.230299    53A      0.231638  
      54A      0.250755    55A      0.254568    56A      0.270689  
      57A      0.274739    58A      0.281470    59A      0.287648  
      60A      0.290102    61A      0.299654    62A      0.341324  
      63A      0.375989    64A      0.388345    65A      0.391052  
      66A      0.406662    67A      0.425602    68A      0.448089  
      69A      0.480725    70A      0.485236    71A      0.496970  
      72A      0.513968    73A      0.590261    74A      0.598057  
      75A      0.603597    76A      0.615333    77A      0.620356  
      78A      0.634200    79A      0.643159    80A      0.661489  
      81A      0.673211    82A      0.689323    83A      0.705649  
      84A      0.718357    85A      0.722522    86A      0.732079  
      87A      0.740756    88A      0.743886    89A      0.746066  
      90A      0.763312    91A      0.771050    92A      0.785091  
      93A      0.791906    94A      0.797302    95A      0.812579  
      96A      0.836658    97A      0.849758    98A      0.868937  
      99A      0.877422   100A      0.882037   101A      0.889145  
     102A      0.892375   103A      0.899183   104A      0.901502  
     105A      0.908977   106A      0.921074   107A      0.924945  
     108A      0.940603   109A      0.949399   110A      0.950674  
     111A      0.960366   112A      0.968212   113A      0.983762  
     114A      1.003034   115A      1.013826   116A      1.022644  
     117A      1.070562   118A      1.072196   119A      1.098149  
     120A      1.117855   121A      1.128551   122A      1.135335  
     123A      1.143125   124A      1.155839   125A      1.179785  
     126A      1.199723   127A      1.214799   128A      1.227491  
     129A      1.229137   130A      1.238295   131A      1.245626  
     132A      1.260990   133A      1.275200   134A      1.301286  
     135A      1.316538   136A      1.333789   137A      1.338641  
     138A      1.364793   139A      1.373881   140A      1.407067  
     141A      1.447172   142A      1.486854   143A      1.490144  
     144A      1.520782   145A      1.566744   146A      1.571397  
     147A      1.596345   148A      1.625085   149A      1.631732  
     150A      1.640144   151A      1.651096   152A      1.684553  
     153A      1.685544   154A      1.695382   155A      1.703670  
     156A      1.751460   157A      1.777441   158A      1.782372  
     159A      1.795678   160A      1.810361   161A      1.832022  
     162A      1.834238   163A      1.867053   164A      1.871386  
     165A      1.883379   166A      1.890399   167A      1.899104  
     168A      1.909744   169A      1.917067   170A      1.928324  
     171A      1.937160   172A      1.941290   173A      1.954221  
     174A      1.957544   175A      1.960664   176A      1.970117  
     177A      1.978119   178A      1.986696   179A      1.999088  
     180A      2.013650   181A      2.021557   182A      2.026524  
     183A      2.049292   184A      2.084061   185A      2.090612  
     186A      2.096575   187A      2.105073   188A      2.109834  
     189A      2.120575   190A      2.122710   191A      2.139371  
     192A      2.155274   193A      2.159701   194A      2.187225  
     195A      2.193211   196A      2.226788   197A      2.254642  
     198A      2.286377   199A      2.301398   200A      2.307242  
     201A      2.317340   202A      2.326043   203A      2.335579  
     204A      2.362040   205A      2.396220   206A      2.426225  
     207A      2.459315   208A      2.460966   209A      2.470646  
     210A      2.491291   211A      2.540167   212A      2.567826  
     213A      2.587186   214A      2.587465   215A      2.617019  
     216A      2.651242   217A      2.667933   218A      2.691925  
     219A      2.700653   220A      2.773937   221A      2.775223  
     222A      2.777662   223A      2.796286   224A      2.803546  
     225A      2.817505   226A      2.828036   227A      2.856665  
     228A      2.867932   229A      2.871100   230A      2.882887  
     231A      2.916044   232A      2.965348   233A      2.973414  
     234A      2.987813   235A      3.038671   236A      3.064601  
     237A      3.091016   238A      3.133643   239A      3.218150  
     240A      3.326096   241A      3.385558   242A      3.747859  
     243A      3.979440  

    Final Occupation by Irrep:
              A 
    DOCC [    44 ]

  @RHF Final Energy:  -479.76692912723479

   => Energetics <=

    Nuclear Repulsion Energy =            652.5240673895040118
    One-Electron Energy =               -1942.9537628857915479
    Two-Electron Energy =                 810.6627663690526333
    Total Energy =                       -479.7669291272347891

Computation Completed


Properties will be evaluated at   0.000000,   0.000000,   0.000000 [a0]

Properties computed using the SCF density matrix

  Nuclear Dipole Moment: [e a0]
     X:    10.5849      Y:     1.6841      Z:     6.5680

  Electronic Dipole Moment: [e a0]
     X:   -10.8035      Y:    -1.4380      Z:    -5.8810

  Dipole Moment: [e a0]
     X:    -0.2187      Y:     0.2460      Z:     0.6870     Total:     0.7618

  Dipole Moment: [D]
     X:    -0.5558      Y:     0.6253      Z:     1.7462     Total:     1.9363


*** tstop() called on ds3 at Sun Apr 26 17:11:25 2020
Module time:
	user time   =     171.00 seconds =       2.85 minutes
	system time =      71.35 seconds =       1.19 minutes
	total time  =        254 seconds =       4.23 minutes
Total time:
	user time   =     171.00 seconds =       2.85 minutes
	system time =      71.35 seconds =       1.19 minutes
	total time  =        254 seconds =       4.23 minutes
                                     G D M A

                                 by Anthony Stone

                           version 2.2.06, 22 June 2011

               Distributed Multipoles from Gaussian wavefunctions


Starting at 17:11:25 on 26 Apr 2020 


Using SCF density matrix from file ./SSI/SSI-040TRP-121ILE-2-dimer.test.17581.fchk


                         Distributed Multipole Analysis

Standard DMA

Positions and radii in angstrom
Multipole moments in atomic units, ea_0^k for rank k

C          x = -2.766754  y =  1.896991  z = -1.771881 angstrom
           Maximum rank =  0   Radius =  0.650 angstrom
                   Q00  =  -0.202707

C          x = -0.469754  y = -0.239009  z =  0.289119 angstrom
           Maximum rank =  0   Radius =  0.650 angstrom
                   Q00  =   0.247006

C          x = -0.967754  y =  0.176991  z = -0.968881 angstrom
           Maximum rank =  0   Radius =  0.650 angstrom
                   Q00  =  -0.053561

C          x = -1.955754  y =  1.186991  z = -0.728881 angstrom
           Maximum rank =  0   Radius =  0.650 angstrom
                   Q00  =  -0.126854

C          x = -2.037754  y =  1.322991  z =  0.621119 angstrom
           Maximum rank =  0   Radius =  0.650 angstrom
                   Q00  =   0.071099

C          x =  0.502246  y = -1.213009  z =  0.409119 angstrom
           Maximum rank =  0   Radius =  0.650 angstrom
                   Q00  =  -0.116964

C          x =  0.993246  y = -1.777009  z = -0.752881 angstrom
           Maximum rank =  0   Radius =  0.650 angstrom
                   Q00  =  -0.008705

C          x =  0.535246  y = -1.373009  z = -2.002881 angstrom
           Maximum rank =  0   Radius =  0.650 angstrom
                   Q00  =  -0.093628

C          x = -0.448754  y = -0.410009  z = -2.124881 angstrom
           Maximum rank =  0   Radius =  0.650 angstrom
                   Q00  =  -0.098265

N          x = -1.149754  y =  0.473991  z =  1.239119 angstrom
           Maximum rank =  0   Radius =  0.650 angstrom
                   Q00  =  -0.500920

H          x =  0.840246  y = -1.539009  z =  1.379119 angstrom
           Maximum rank =  0   Radius =  0.325 angstrom
                   Q00  =   0.077414

H          x =  1.766246  y = -2.527009  z = -0.697881 angstrom
           Maximum rank =  0   Radius =  0.325 angstrom
                   Q00  =   0.061209

H          x = -1.055754  y =  0.396991  z =  2.247119 angstrom
           Maximum rank =  0   Radius =  0.325 angstrom
                   Q00  =   0.217560

H          x =  0.958246  y = -1.813009  z = -2.894881 angstrom
           Maximum rank =  0   Radius =  0.325 angstrom
                   Q00  =   0.057469

H          x = -2.712754  y =  1.999991  z =  1.135119 angstrom
           Maximum rank =  0   Radius =  0.325 angstrom
                   Q00  =   0.100429

H          x = -0.793754  y = -0.097009  z = -3.098881 angstrom
           Maximum rank =  0   Radius =  0.325 angstrom
                   Q00  =   0.067623

H          x = -2.102754  y =  2.275991  z = -2.550881 angstrom
           Maximum rank =  0   Radius =  0.325 angstrom
                   Q00  =   0.099282

H          x = -3.261754  y =  2.745991  z = -1.308881 angstrom
           Maximum rank =  0   Radius =  0.325 angstrom
                   Q00  =   0.104775

H          x = -3.504531  y =  1.216243  z = -2.221622 angstrom
           Maximum rank =  0   Radius =  0.325 angstrom
                   Q00  =   0.097429

C          x =  3.413246  y = -0.836009  z =  2.201119 angstrom
           Maximum rank =  0   Radius =  0.650 angstrom
                   Q00  =  -0.234832

C          x =  3.596246  y =  0.559991  z =  2.795119 angstrom
           Maximum rank =  0   Radius =  0.650 angstrom
                   Q00  =  -0.236491

H          x =  3.174246  y = -0.780009  z =  1.141119 angstrom
           Maximum rank =  0   Radius =  0.325 angstrom
                   Q00  =   0.094136

H          x =  4.339246  y = -1.393009  z =  2.309119 angstrom
           Maximum rank =  0   Radius =  0.325 angstrom
                   Q00  =   0.078123

H          x =  2.626246  y = -1.357009  z =  2.741119 angstrom
           Maximum rank =  0   Radius =  0.325 angstrom
                   Q00  =   0.066046

H          x =  4.447246  y =  1.038991  z =  2.315119 angstrom
           Maximum rank =  0   Radius =  0.325 angstrom
                   Q00  =   0.080602

H          x =  3.856246  y =  0.428991  z =  3.843119 angstrom
           Maximum rank =  0   Radius =  0.325 angstrom
                   Q00  =   0.072982

H          x =  2.710656  y =  1.200740  z =  2.671981 angstrom
           Maximum rank =  0   Radius =  0.325 angstrom
                   Q00  =   0.079746

Total multipoles referred to origin at
           x =   0.000000,  y =    0.000000,  z =    0.000000 angstrom
                   Q00  =  -0.000000

Finished at 17:11:25 on 26 Apr 2020 

  DMA results are available in the Python driver through the
	  variable('DMA DISTRIBUTED MULTIPOLES')
  and
	  variable('DMA TOTAL MULTIPOLES')
  commands.


    Psi4 stopped on: Sunday, 26 April 2020 05:11PM
    Psi4 wall time for execution: 0:04:13.67

*** Psi4 exiting successfully. Buy a developer a beer!
