
    -----------------------------------------------------------------------
          Psi4: An Open-Source Ab Initio Electronic Structure Package
                               Psi4 1.3.2 release

                         Git: Rev {HEAD} ecbda83 


    R. M. Parrish, L. A. Burns, D. G. A. Smith, A. C. Simmonett,
    A. E. DePrince III, E. G. Hohenstein, U. Bozkaya, A. Yu. Sokolov,
    R. Di Remigio, R. M. Richard, J. F. Gonthier, A. M. James,
    H. R. McAlexander, A. Kumar, M. Saitow, X. Wang, B. P. Pritchard,
    P. Verma, H. F. Schaefer III, K. Patkowski, R. A. King, E. F. Valeev,
    F. A. Evangelista, J. M. Turney, T. D. Crawford, and C. D. Sherrill,
    J. Chem. Theory Comput. 13(7) pp 3185--3197 (2017).
    (doi: 10.1021/acs.jctc.7b00174)


                         Additional Contributions by
    P. Kraus, H. Kruse, M. H. Lechner, M. C. Schieber, R. A. Shaw,
    A. Alenaizan, R. Galvelis, Z. L. Glick, S. Lehtola, and J. P. Misiewicz

    -----------------------------------------------------------------------


    Psi4 started on: Sunday, 26 April 2020 06:52PM

    Process ID: 23542
    Host:       ds3
    PSIDATADIR: /theoryfs2/ds/metcalf/miniconda2/envs/tf2gpu/share/psi4
    Memory:     500.0 MiB
    Threads:    1
    
  ==> Input File <==

--------------------------------------------------------------------------
import numpy as np
set {scf_type pk
basis cc-pvdz
d_convergence 10
gdma_switch   0
gdma_limit    0
gdma_origin   [ 0.0,  0.0,  0.0 ]
}
molecule test {
    units Angstrom
    -1 1
    --
    -1 1
    C                1.294716614245580     2.260096437506441    -0.157518047638474
    C                1.592716614245580     3.383096437506441    -1.152518047638474
    C                2.527716614245580     1.421096437506441     0.166481952361526
    O                3.242716614245580     1.019096437506440    -0.783518047638474
    O                2.765716614245580     1.160096437506441     1.372481952361526
    H                0.889716614245580     2.690096437506441     0.760481952361526
    H                0.530716614245580     1.612096437506440    -0.587518047638474
    H                1.970716614245580     2.936096437506441    -2.072518047638474
    H                2.354148614245581     4.065286437506440    -0.746518047638474
    H                0.671505614245580     3.940296437506441    -1.378135047638474
    C               -4.071283385754420    -2.093903562493559    -0.620518047638474
    C               -0.111283385754420    -0.987903562493559     0.628481952361526
    C               -0.286283385754420    -1.835903562493560    -0.463518047638474
    C               -1.220283385754420    -0.492903562493559     1.311481952361526
    C               -1.572283385754420    -2.196903562493559    -0.864518047638474
    C               -2.506283385754420    -0.858903562493559     0.908481952361526
    C               -2.688283385754420    -1.715903562493559    -0.176518047638474
    H                0.885716614245580    -0.719903562493559     0.948481952361526
    H                0.574716614245580    -2.197903562493559    -1.002518047638474
    H               -1.083283385754420     0.167096437506441     2.158481952361526
    H               -1.701283385754420    -2.851903562493559    -1.715518047638474
    H               -3.362283385754420    -0.472903562493559     1.445481952361526
    H               -4.786283385754419    -1.872903562493559     0.174481952361526
    H               -4.082283385754420    -3.171903562493559    -0.786518047638474
    H               -4.386013385754419    -1.583003562493559    -1.542434047638474

}
e, wfn = energy('scf', return_wfn=True)
gdma(wfn)
dmavals = variable('DMA DISTRIBUTED MULTIPOLES')
charges = np.array(dmavals)
print(charges)
np.save('SSI-089ASP-092PHE-1-dimer.npy', np.array(charges))--------------------------------------------------------------------------

*** tstart() called on ds3
*** at Sun Apr 26 18:52:48 2020

   => Loading Basis Set <=

    Name: CC-PVDZ
    Role: ORBITAL
    Keyword: BASIS
    atoms 1-3, 11-17  entry C          line   138 file /theoryfs2/ds/metcalf/miniconda2/envs/tf2gpu/share/psi4/basis/cc-pvdz.gbs 
    atoms 4-5         entry O          line   198 file /theoryfs2/ds/metcalf/miniconda2/envs/tf2gpu/share/psi4/basis/cc-pvdz.gbs 
    atoms 6-10, 18-25 entry H          line    22 file /theoryfs2/ds/metcalf/miniconda2/envs/tf2gpu/share/psi4/basis/cc-pvdz.gbs 


         ---------------------------------------------------------
                                   SCF
               by Justin Turney, Rob Parrish, Andy Simmonett
                          and Daniel G. A. Smith
                              RHF Reference
                        1 Threads,    500 MiB Core
         ---------------------------------------------------------

  ==> Geometry <==

    Molecular point group: c1
    Full point group: C1

    Geometry (in Angstrom), charge = -1, multiplicity = 1:

       Center              X                  Y                   Z               Mass       
    ------------   -----------------  -----------------  -----------------  -----------------
         C            1.294716614246     2.260096437506    -0.157518047638    12.000000000000
         C            1.592716614246     3.383096437506    -1.152518047638    12.000000000000
         C            2.527716614246     1.421096437506     0.166481952362    12.000000000000
         O            3.242716614246     1.019096437506    -0.783518047638    15.994914619570
         O            2.765716614246     1.160096437506     1.372481952362    15.994914619570
         H            0.889716614246     2.690096437506     0.760481952362     1.007825032230
         H            0.530716614246     1.612096437506    -0.587518047638     1.007825032230
         H            1.970716614246     2.936096437506    -2.072518047638     1.007825032230
         H            2.354148614246     4.065286437506    -0.746518047638     1.007825032230
         H            0.671505614246     3.940296437506    -1.378135047638     1.007825032230
         C           -4.071283385754    -2.093903562494    -0.620518047638    12.000000000000
         C           -0.111283385754    -0.987903562494     0.628481952362    12.000000000000
         C           -0.286283385754    -1.835903562494    -0.463518047638    12.000000000000
         C           -1.220283385754    -0.492903562494     1.311481952362    12.000000000000
         C           -1.572283385754    -2.196903562494    -0.864518047638    12.000000000000
         C           -2.506283385754    -0.858903562494     0.908481952362    12.000000000000
         C           -2.688283385754    -1.715903562494    -0.176518047638    12.000000000000
         H            0.885716614246    -0.719903562494     0.948481952362     1.007825032230
         H            0.574716614246    -2.197903562494    -1.002518047638     1.007825032230
         H           -1.083283385754     0.167096437506     2.158481952362     1.007825032230
         H           -1.701283385754    -2.851903562494    -1.715518047638     1.007825032230
         H           -3.362283385754    -0.472903562494     1.445481952362     1.007825032230
         H           -4.786283385754    -1.872903562494     0.174481952362     1.007825032230
         H           -4.082283385754    -3.171903562494    -0.786518047638     1.007825032230
         H           -4.386013385754    -1.583003562494    -1.542434047638     1.007825032230

  Running in c1 symmetry.

  Rotational constants: A =      0.05761  B =      0.01178  C =      0.01147 [cm^-1]
  Rotational constants: A =   1727.16667  B =    353.17122  C =    343.73257 [MHz]
  Nuclear repulsion =  631.139442811776917

  Charge       = -1
  Multiplicity = 1
  Electrons    = 90
  Nalpha       = 45
  Nbeta        = 45

  ==> Algorithm <==

  SCF Algorithm Type is PK.
  DIIS enabled.
  MOM disabled.
  Fractional occupation disabled.
  Guess Type is SAD.
  Energy threshold   = 1.00e-06
  Density threshold  = 1.00e-10
  Integral threshold = 0.00e+00

  ==> Primary Basis <==

  Basis Set: CC-PVDZ
    Blend: CC-PVDZ
    Number of shells: 111
    Number of basis function: 233
    Number of Cartesian functions: 245
    Spherical Harmonics?: true
    Max angular momentum: 2

  ==> Pre-Iterations <==

   -------------------------------------------------------
    Irrep   Nso     Nmo     Nalpha   Nbeta   Ndocc  Nsocc
   -------------------------------------------------------
     A        233     233       0       0       0       0
   -------------------------------------------------------
    Total     233     233      45      45      45       0
   -------------------------------------------------------

  ==> Integral Setup <==

  Using integral reordering PK algorithm.
  Sizing the integral batches needed.
  Building batch lookup table.
   Calculation information:
      Number of atoms:                  25
      Number of AO shells:             111
      Number of primitives:            329
      Number of atomic orbitals:       245
      Number of basis functions:       233

      Integral cutoff                 1.00e-12
      Number of threads:                 1

	Batch   1 pq = [       0,    9405] index = [             0,44231715] size =     44231715
	Batch   2 pq = [    9405,   13301] index = [      44231715,88464951] size =     44233236
	Batch   3 pq = [   13301,   16290] index = [      88464951,132690195] size =     44225244
	Batch   4 pq = [   16290,   18810] index = [     132690195,176917455] size =     44227260
	Batch   5 pq = [   18810,   21030] index = [     176917455,221140965] size =     44223510
	Batch   6 pq = [   21030,   23037] index = [     221140965,265363203] size =     44222238
	Batch   7 pq = [   23037,   24883] index = [     265363203,309594286] size =     44231083
	Batch   8 pq = [   24883,   26601] index = [     309594286,353819901] size =     44225615
	Batch   9 pq = [   26601,   27261] index = [     353819901,371594691] size =     17774790
  Task number: 34
  Buffer size: 11059200
  Buffer per thread: 2
  We computed 16389519 shell quartets total.
  Whereas there are 19322436 unique shell quartets.

  ==> DiskJK: Disk-Based J/K Matrices <==

    J tasked:                  Yes
    K tasked:                  Yes
    wK tasked:                  No
    Memory [MiB]:              375
    Schwarz Cutoff:          1E-12

    OpenMP threads:              1

  Minimum eigenvalue in the overlap matrix is 3.1019228393E-04.
  Using Symmetric Orthogonalization.

  SCF Guess: Superposition of Atomic Densities via on-the-fly atomic UHF.

  ==> Iterations <==

                        Total Energy        Delta E     RMS |[F,P]|

   @RHF iter SAD:  -534.32923144548681   -5.34329e+02   0.00000e+00 
   @RHF iter   1:  -535.68832001471662   -1.35909e+00   3.43595e-03 DIIS
   @RHF iter   2:  -535.96999046399310   -2.81670e-01   1.82651e-03 DIIS
   @RHF iter   3:  -536.03975431990773   -6.97639e-02   3.21817e-04 DIIS
   @RHF iter   4:  -536.04357165809165   -3.81734e-03   1.21100e-04 DIIS
   @RHF iter   5:  -536.04406842147239   -4.96763e-04   1.89471e-05 DIIS
   @RHF iter   6:  -536.04408591151127   -1.74900e-05   5.72969e-06 DIIS
   @RHF iter   7:  -536.04408762162223   -1.71011e-06   2.32582e-06 DIIS
   @RHF iter   8:  -536.04408792786739   -3.06245e-07   9.42588e-07 DIIS
   @RHF iter   9:  -536.04408801753493   -8.96675e-08   5.04163e-07 DIIS
   @RHF iter  10:  -536.04408805097478   -3.34398e-08   2.01634e-07 DIIS
   @RHF iter  11:  -536.04408805803200   -7.05722e-09   7.35918e-08 DIIS
   @RHF iter  12:  -536.04408805851222   -4.80213e-10   3.17807e-08 DIIS
   @RHF iter  13:  -536.04408805858907   -7.68523e-11   9.90787e-09 DIIS
   @RHF iter  14:  -536.04408805859146   -2.38742e-12   3.12706e-09 DIIS
   @RHF iter  15:  -536.04408805859259   -1.13687e-12   1.10016e-09 DIIS
   @RHF iter  16:  -536.04408805859362   -1.02318e-12   5.30978e-10 DIIS
   @RHF iter  17:  -536.04408805859430   -6.82121e-13   2.27528e-10 DIIS
   @RHF iter  18:  -536.04408805859316    1.13687e-12   8.75518e-11 DIIS
  Energy and wave function converged.


  ==> Post-Iterations <==

    Orbital Energies [Eh]
    ---------------------

    Doubly Occupied:                                                      

       1A    -20.265567     2A    -20.264333     3A    -11.151003  
       4A    -11.146104     5A    -11.136169     6A    -11.135746  
       7A    -11.132315     8A    -11.131915     9A    -11.119637  
      10A    -11.118103    11A    -11.075064    12A    -11.051805  
      13A     -1.150247    14A     -1.053332    15A     -1.038550  
      16A     -0.949195    17A     -0.911876    18A     -0.870850  
      19A     -0.839342    20A     -0.725348    21A     -0.701569  
      22A     -0.695972    23A     -0.588259    24A     -0.535056  
      25A     -0.531595    26A     -0.509743    27A     -0.497397  
      28A     -0.484158    29A     -0.462401    30A     -0.454924  
      31A     -0.450820    32A     -0.432860    33A     -0.390762  
      34A     -0.387263    35A     -0.386138    36A     -0.381747  
      37A     -0.367128    38A     -0.360054    39A     -0.323419  
      40A     -0.300653    41A     -0.234000    42A     -0.219887  
      43A     -0.183408    44A     -0.177077    45A     -0.164987  

    Virtual:                                                              

      46A      0.232032    47A      0.241161    48A      0.265558  
      49A      0.299294    50A      0.305621    51A      0.329706  
      52A      0.338682    53A      0.344779    54A      0.358855  
      55A      0.368734    56A      0.388970    57A      0.403966  
      58A      0.411211    59A      0.419339    60A      0.431742  
      61A      0.460354    62A      0.464973    63A      0.481447  
      64A      0.541645    65A      0.556089    66A      0.569818  
      67A      0.574918    68A      0.589230    69A      0.604038  
      70A      0.654150    71A      0.686829    72A      0.709719  
      73A      0.714986    74A      0.728191    75A      0.755831  
      76A      0.760661    77A      0.777872    78A      0.789795  
      79A      0.804708    80A      0.819097    81A      0.831459  
      82A      0.837181    83A      0.839652    84A      0.848377  
      85A      0.857724    86A      0.859877    87A      0.873695  
      88A      0.917943    89A      0.929789    90A      0.945955  
      91A      0.956023    92A      0.962655    93A      0.970525  
      94A      0.980039    95A      0.991081    96A      0.997309  
      97A      1.004316    98A      1.008100    99A      1.016281  
     100A      1.020542   101A      1.029290   102A      1.040544  
     103A      1.045721   104A      1.058951   105A      1.062328  
     106A      1.075914   107A      1.103196   108A      1.113979  
     109A      1.121628   110A      1.129651   111A      1.152443  
     112A      1.167001   113A      1.230134   114A      1.243022  
     115A      1.245917   116A      1.255002   117A      1.255265  
     118A      1.290388   119A      1.307669   120A      1.316297  
     121A      1.336753   122A      1.343798   123A      1.350053  
     124A      1.361543   125A      1.387543   126A      1.389609  
     127A      1.417137   128A      1.422373   129A      1.432634  
     130A      1.478269   131A      1.505926   132A      1.532449  
     133A      1.570514   134A      1.598693   135A      1.603122  
     136A      1.619308   137A      1.622285   138A      1.647086  
     139A      1.658156   140A      1.682087   141A      1.693686  
     142A      1.708496   143A      1.747607   144A      1.764262  
     145A      1.776999   146A      1.830753   147A      1.833370  
     148A      1.837751   149A      1.864464   150A      1.870442  
     151A      1.888453   152A      1.906367   153A      1.935859  
     154A      1.953595   155A      1.980730   156A      1.988158  
     157A      2.001158   158A      2.010660   159A      2.024976  
     160A      2.032921   161A      2.041328   162A      2.045079  
     163A      2.055923   164A      2.064320   165A      2.078833  
     166A      2.091488   167A      2.096207   168A      2.099000  
     169A      2.135009   170A      2.142826   171A      2.144080  
     172A      2.150672   173A      2.168325   174A      2.174103  
     175A      2.176782   176A      2.199366   177A      2.221251  
     178A      2.233663   179A      2.259983   180A      2.266759  
     181A      2.278213   182A      2.284472   183A      2.291520  
     184A      2.331618   185A      2.365922   186A      2.371313  
     187A      2.376047   188A      2.387517   189A      2.422410  
     190A      2.429461   191A      2.457865   192A      2.471145  
     193A      2.490952   194A      2.535413   195A      2.559328  
     196A      2.573604   197A      2.598713   198A      2.619334  
     199A      2.631427   200A      2.661071   201A      2.712905  
     202A      2.734477   203A      2.749160   204A      2.820042  
     205A      2.827674   206A      2.847336   207A      2.863755  
     208A      2.900908   209A      2.903963   210A      2.906644  
     211A      2.931016   212A      2.958197   213A      2.991167  
     214A      3.010988   215A      3.045421   216A      3.075232  
     217A      3.108977   218A      3.123199   219A      3.136657  
     220A      3.244017   221A      3.253051   222A      3.279814  
     223A      3.294732   224A      3.311332   225A      3.360902  
     226A      3.394033   227A      3.626861   228A      3.782796  
     229A      3.819044   230A      4.049911   231A      4.065586  
     232A      4.077768   233A      4.185144  

    Final Occupation by Irrep:
              A 
    DOCC [    45 ]

  @RHF Final Energy:  -536.04408805859316

   => Energetics <=

    Nuclear Repulsion Energy =            631.1394428117769166
    One-Electron Energy =               -1995.3915041046609531
    Two-Electron Energy =                 828.2079732342908756
    Total Energy =                       -536.0440880585931609

Computation Completed


Properties will be evaluated at   0.000000,   0.000000,   0.000000 [a0]

Properties computed using the SCF density matrix

  Nuclear Dipole Moment: [e a0]
     X:   -10.7747      Y:     2.3922      Z:    -4.0698

  Electronic Dipole Moment: [e a0]
     X:     5.6034      Y:    -4.2331      Z:     3.5933

  Dipole Moment: [e a0]
     X:    -5.1713      Y:    -1.8410      Z:    -0.4765     Total:     5.5098

  Dipole Moment: [D]
     X:   -13.1441      Y:    -4.6793      Z:    -1.2111     Total:    14.0046


*** tstop() called on ds3 at Sun Apr 26 18:57:22 2020
Module time:
	user time   =     128.27 seconds =       2.14 minutes
	system time =      54.41 seconds =       0.91 minutes
	total time  =        274 seconds =       4.57 minutes
Total time:
	user time   =     128.27 seconds =       2.14 minutes
	system time =      54.41 seconds =       0.91 minutes
	total time  =        274 seconds =       4.57 minutes
                                     G D M A

                                 by Anthony Stone

                           version 2.2.06, 22 June 2011

               Distributed Multipoles from Gaussian wavefunctions


Starting at 18:57:22 on 26 Apr 2020 


Using SCF density matrix from file ./SSI/SSI-089ASP-092PHE-1-dimer.test.23542.fchk


                         Distributed Multipole Analysis

Standard DMA

Positions and radii in angstrom
Multipole moments in atomic units, ea_0^k for rank k

C          x =  1.294717  y =  2.260096  z = -0.157518 angstrom
           Maximum rank =  0   Radius =  0.650 angstrom
                   Q00  =  -0.146805

C          x =  1.592717  y =  3.383096  z = -1.152518 angstrom
           Maximum rank =  0   Radius =  0.650 angstrom
                   Q00  =  -0.202161

C          x =  2.527717  y =  1.421096  z =  0.166482 angstrom
           Maximum rank =  0   Radius =  0.650 angstrom
                   Q00  =   0.983456

O          x =  3.242717  y =  1.019096  z = -0.783518 angstrom
           Maximum rank =  0   Radius =  0.650 angstrom
                   Q00  =  -0.948097

O          x =  2.765717  y =  1.160096  z =  1.372482 angstrom
           Maximum rank =  0   Radius =  0.650 angstrom
                   Q00  =  -0.931347

H          x =  0.889717  y =  2.690096  z =  0.760482 angstrom
           Maximum rank =  0   Radius =  0.325 angstrom
                   Q00  =   0.019230

H          x =  0.530717  y =  1.612096  z = -0.587518 angstrom
           Maximum rank =  0   Radius =  0.325 angstrom
                   Q00  =   0.054921

H          x =  1.970717  y =  2.936096  z = -2.072518 angstrom
           Maximum rank =  0   Radius =  0.325 angstrom
                   Q00  =   0.087733

H          x =  2.354149  y =  4.065286  z = -0.746518 angstrom
           Maximum rank =  0   Radius =  0.325 angstrom
                   Q00  =   0.062966

H          x =  0.671506  y =  3.940296  z = -1.378135 angstrom
           Maximum rank =  0   Radius =  0.325 angstrom
                   Q00  =   0.021398

C          x = -4.071283  y = -2.093904  z = -0.620518 angstrom
           Maximum rank =  0   Radius =  0.650 angstrom
                   Q00  =  -0.195140

C          x = -0.111283  y = -0.987904  z =  0.628482 angstrom
           Maximum rank =  0   Radius =  0.650 angstrom
                   Q00  =  -0.017016

C          x = -0.286283  y = -1.835904  z = -0.463518 angstrom
           Maximum rank =  0   Radius =  0.650 angstrom
                   Q00  =  -0.070228

C          x = -1.220283  y = -0.492904  z =  1.311482 angstrom
           Maximum rank =  0   Radius =  0.650 angstrom
                   Q00  =  -0.079836

C          x = -1.572283  y = -2.196904  z = -0.864518 angstrom
           Maximum rank =  0   Radius =  0.650 angstrom
                   Q00  =  -0.024477

C          x = -2.506283  y = -0.858904  z =  0.908482 angstrom
           Maximum rank =  0   Radius =  0.650 angstrom
                   Q00  =  -0.061636

C          x = -2.688283  y = -1.715904  z = -0.176518 angstrom
           Maximum rank =  0   Radius =  0.650 angstrom
                   Q00  =  -0.107634

H          x =  0.885717  y = -0.719904  z =  0.948482 angstrom
           Maximum rank =  0   Radius =  0.325 angstrom
                   Q00  =   0.083561

H          x =  0.574717  y = -2.197904  z = -1.002518 angstrom
           Maximum rank =  0   Radius =  0.325 angstrom
                   Q00  =   0.067715

H          x = -1.083283  y =  0.167096  z =  2.158482 angstrom
           Maximum rank =  0   Radius =  0.325 angstrom
                   Q00  =   0.067075

H          x = -1.701283  y = -2.851904  z = -1.715518 angstrom
           Maximum rank =  0   Radius =  0.325 angstrom
                   Q00  =   0.035343

H          x = -3.362283  y = -0.472904  z =  1.445482 angstrom
           Maximum rank =  0   Radius =  0.325 angstrom
                   Q00  =   0.037317

H          x = -4.786283  y = -1.872904  z =  0.174482 angstrom
           Maximum rank =  0   Radius =  0.325 angstrom
                   Q00  =   0.086145

H          x = -4.082283  y = -3.171904  z = -0.786518 angstrom
           Maximum rank =  0   Radius =  0.325 angstrom
                   Q00  =   0.084824

H          x = -4.386013  y = -1.583004  z = -1.542434 angstrom
           Maximum rank =  0   Radius =  0.325 angstrom
                   Q00  =   0.092692

Total multipoles referred to origin at
           x =   0.000000,  y =    0.000000,  z =    0.000000 angstrom
                   Q00  =  -1.000000

Finished at 18:57:22 on 26 Apr 2020 

  DMA results are available in the Python driver through the
	  variable('DMA DISTRIBUTED MULTIPOLES')
  and
	  variable('DMA TOTAL MULTIPOLES')
  commands.


    Psi4 stopped on: Sunday, 26 April 2020 06:57PM
    Psi4 wall time for execution: 0:04:34.68

*** Psi4 exiting successfully. Buy a developer a beer!
