
    -----------------------------------------------------------------------
          Psi4: An Open-Source Ab Initio Electronic Structure Package
                               Psi4 1.3.2 release

                         Git: Rev {HEAD} ecbda83 


    R. M. Parrish, L. A. Burns, D. G. A. Smith, A. C. Simmonett,
    A. E. DePrince III, E. G. Hohenstein, U. Bozkaya, A. Yu. Sokolov,
    R. Di Remigio, R. M. Richard, J. F. Gonthier, A. M. James,
    H. R. McAlexander, A. Kumar, M. Saitow, X. Wang, B. P. Pritchard,
    P. Verma, H. F. Schaefer III, K. Patkowski, R. A. King, E. F. Valeev,
    F. A. Evangelista, J. M. Turney, T. D. Crawford, and C. D. Sherrill,
    J. Chem. Theory Comput. 13(7) pp 3185--3197 (2017).
    (doi: 10.1021/acs.jctc.7b00174)


                         Additional Contributions by
    P. Kraus, H. Kruse, M. H. Lechner, M. C. Schieber, R. A. Shaw,
    A. Alenaizan, R. Galvelis, Z. L. Glick, S. Lehtola, and J. P. Misiewicz

    -----------------------------------------------------------------------


    Psi4 started on: Tuesday, 28 April 2020 11:52AM

    Process ID: 13178
    Host:       ds3
    PSIDATADIR: /theoryfs2/ds/metcalf/miniconda2/envs/tf2gpu/share/psi4
    Memory:     500.0 MiB
    Threads:    1
    
  ==> Input File <==

--------------------------------------------------------------------------
import numpy as np
set {scf_type pk
basis cc-pvdz
d_convergence 10
gdma_switch   0
gdma_limit    0
gdma_origin   [ 0.0,  0.0,  0.0 ]
}
molecule test {
    units Angstrom
    0 1
    --
    0 1
    C               -0.407642983312847    -0.782374507006927     0.926732884745189
    C                0.086357016687153    -0.053374507006927     2.172732884745189
    C               -1.760642983312847    -1.285374507006927     1.284732884745189
    H                0.249357016687153    -1.622374507006927     0.700732884745189
    H               -0.464642983312847    -0.106374507006927     0.075732884745189
    H                1.160357016687153    -0.178374507006927     2.299732884745189
    H               -0.172642983312847     0.997625492993073     2.085732884745189
    H               -2.111642983312846    -2.091374507006926     0.662732884745189
    H               -2.462642983312847    -0.468374507006927     1.191732884745189
    H               -0.481382983312847    -0.514284507006927     2.994462884745189
    H               -1.656722983312847    -1.565374507006926     2.343412884745189
    C                1.122357016687153     0.292625492993073    -2.212267115254811
    C                0.943357016687153     1.779625492993073    -2.121267115254811
    H                1.462357016687153    -0.090374507006927    -1.253267115254811
    H                0.174357016687153    -0.181374507006927    -2.456267115254811
    H                1.855357016687153     0.044625492993073    -2.981267115254811
    H                0.178357016687153     1.996625492993073    -1.377267115254811
    H                1.892887016687153     2.229325492993073    -1.795448115254811
    H                0.569717016687153     2.131995492993073    -3.094009115254811

}
e, wfn = energy('scf', return_wfn=True)
gdma(wfn)
dmavals = variable('DMA DISTRIBUTED MULTIPOLES')
charges = np.array(dmavals)
print(charges)
np.save('SSI-065PRO-101LEU-1-dimer.npy', np.array(charges))--------------------------------------------------------------------------

*** tstart() called on ds3
*** at Tue Apr 28 11:52:32 2020

   => Loading Basis Set <=

    Name: CC-PVDZ
    Role: ORBITAL
    Keyword: BASIS
    atoms 1-3, 12-13  entry C          line   138 file /theoryfs2/ds/metcalf/miniconda2/envs/tf2gpu/share/psi4/basis/cc-pvdz.gbs 
    atoms 4-11, 14-19 entry H          line    22 file /theoryfs2/ds/metcalf/miniconda2/envs/tf2gpu/share/psi4/basis/cc-pvdz.gbs 


         ---------------------------------------------------------
                                   SCF
               by Justin Turney, Rob Parrish, Andy Simmonett
                          and Daniel G. A. Smith
                              RHF Reference
                        1 Threads,    500 MiB Core
         ---------------------------------------------------------

  ==> Geometry <==

    Molecular point group: c1
    Full point group: C1

    Geometry (in Angstrom), charge = 0, multiplicity = 1:

       Center              X                  Y                   Z               Mass       
    ------------   -----------------  -----------------  -----------------  -----------------
         C           -0.407642983313    -0.782374507007     0.926732884745    12.000000000000
         C            0.086357016687    -0.053374507007     2.172732884745    12.000000000000
         C           -1.760642983313    -1.285374507007     1.284732884745    12.000000000000
         H            0.249357016687    -1.622374507007     0.700732884745     1.007825032230
         H           -0.464642983313    -0.106374507007     0.075732884745     1.007825032230
         H            1.160357016687    -0.178374507007     2.299732884745     1.007825032230
         H           -0.172642983313     0.997625492993     2.085732884745     1.007825032230
         H           -2.111642983313    -2.091374507007     0.662732884745     1.007825032230
         H           -2.462642983313    -0.468374507007     1.191732884745     1.007825032230
         H           -0.481382983313    -0.514284507007     2.994462884745     1.007825032230
         H           -1.656722983313    -1.565374507007     2.343412884745     1.007825032230
         C            1.122357016687     0.292625492993    -2.212267115255    12.000000000000
         C            0.943357016687     1.779625492993    -2.121267115255    12.000000000000
         H            1.462357016687    -0.090374507007    -1.253267115255     1.007825032230
         H            0.174357016687    -0.181374507007    -2.456267115255     1.007825032230
         H            1.855357016687     0.044625492993    -2.981267115255     1.007825032230
         H            0.178357016687     1.996625492993    -1.377267115255     1.007825032230
         H            1.892887016687     2.229325492993    -1.795448115255     1.007825032230
         H            0.569717016687     2.131995492993    -3.094009115255     1.007825032230

  Running in c1 symmetry.

  Rotational constants: A =      0.22144  B =      0.04386  C =      0.04047 [cm^-1]
  Rotational constants: A =   6638.68409  B =   1315.00980  C =   1213.18275 [MHz]
  Nuclear repulsion =  182.153584888441287

  Charge       = 0
  Multiplicity = 1
  Electrons    = 44
  Nalpha       = 22
  Nbeta        = 22

  ==> Algorithm <==

  SCF Algorithm Type is PK.
  DIIS enabled.
  MOM disabled.
  Fractional occupation disabled.
  Guess Type is SAD.
  Energy threshold   = 1.00e-06
  Density threshold  = 1.00e-10
  Integral threshold = 0.00e+00

  ==> Primary Basis <==

  Basis Set: CC-PVDZ
    Blend: CC-PVDZ
    Number of shells: 72
    Number of basis function: 140
    Number of Cartesian functions: 145
    Spherical Harmonics?: true
    Max angular momentum: 2

  ==> Pre-Iterations <==

   -------------------------------------------------------
    Irrep   Nso     Nmo     Nalpha   Nbeta   Ndocc  Nsocc
   -------------------------------------------------------
     A        140     140       0       0       0       0
   -------------------------------------------------------
    Total     140     140      22      22      22       0
   -------------------------------------------------------

  ==> Integral Setup <==

  Using integral reordering PK algorithm.
  Sizing the integral batches needed.
  Building batch lookup table.
   Calculation information:
      Number of atoms:                  19
      Number of AO shells:              72
      Number of primitives:            180
      Number of atomic orbitals:       145
      Number of basis functions:       140

      Integral cutoff                 1.00e-12
      Number of threads:                 1

	Batch   1 pq = [       0,    9405] index = [             0,44231715] size =     44231715
	Batch   2 pq = [    9405,    9870] index = [      44231715,48713385] size =      4481670
  Task number: 5
  Buffer size: 11059200
  Buffer per thread: 2
  We computed 2981316 shell quartets total.
  Whereas there are 3454506 unique shell quartets.

  ==> DiskJK: Disk-Based J/K Matrices <==

    J tasked:                  Yes
    K tasked:                  Yes
    wK tasked:                  No
    Memory [MiB]:              375
    Schwarz Cutoff:          1E-12

    OpenMP threads:              1

  Minimum eigenvalue in the overlap matrix is 4.6458760871E-03.
  Using Symmetric Orthogonalization.

  SCF Guess: Superposition of Atomic Densities via on-the-fly atomic UHF.

  ==> Iterations <==

                        Total Energy        Delta E     RMS |[F,P]|

   @RHF iter SAD:  -196.62281001296702   -1.96623e+02   0.00000e+00 
   @RHF iter   1:  -197.28212692445717   -6.59317e-01   3.92732e-03 DIIS
   @RHF iter   2:  -197.44858963544235   -1.66463e-01   1.71456e-03 DIIS
   @RHF iter   3:  -197.47931501282915   -3.07254e-02   3.32795e-04 DIIS
   @RHF iter   4:  -197.48158322450971   -2.26821e-03   5.09039e-05 DIIS
   @RHF iter   5:  -197.48162559237539   -4.23679e-05   1.55976e-05 DIIS
   @RHF iter   6:  -197.48162940845623   -3.81608e-06   2.65339e-06 DIIS
   @RHF iter   7:  -197.48162953931205   -1.30856e-07   5.12782e-07 DIIS
   @RHF iter   8:  -197.48162954459278   -5.28073e-09   1.28636e-07 DIIS
   @RHF iter   9:  -197.48162954490746   -3.14685e-10   3.82783e-08 DIIS
   @RHF iter  10:  -197.48162954494055   -3.30829e-11   8.27932e-09 DIIS
   @RHF iter  11:  -197.48162954494290   -2.35900e-12   1.61695e-09 DIIS
   @RHF iter  12:  -197.48162954494154    1.36424e-12   3.40924e-10 DIIS
   @RHF iter  13:  -197.48162954494137    1.70530e-13   7.18664e-11 DIIS
  Energy and wave function converged.


  ==> Post-Iterations <==

    Orbital Energies [Eh]
    ---------------------

    Doubly Occupied:                                                      

       1A    -11.217579     2A    -11.212662     3A    -11.212484  
       4A    -11.211738     5A    -11.208161     6A     -1.071298  
       7A     -1.026980     8A     -0.918096     9A     -0.832554  
      10A     -0.798044    11A     -0.640839    12A     -0.617930  
      13A     -0.607221    14A     -0.600321    15A     -0.541009  
      16A     -0.515700    17A     -0.502690    18A     -0.488409  
      19A     -0.484331    20A     -0.473978    21A     -0.466806  
      22A     -0.463720  

    Virtual:                                                              

      23A      0.168635    24A      0.202590    25A      0.206509  
      26A      0.219749    27A      0.234342    28A      0.253256  
      29A      0.259534    30A      0.263794    31A      0.279710  
      32A      0.286270    33A      0.299381    34A      0.305800  
      35A      0.337678    36A      0.350227    37A      0.383125  
      38A      0.400914    39A      0.448737    40A      0.571221  
      41A      0.582884    42A      0.591499    43A      0.614012  
      44A      0.623129    45A      0.634468    46A      0.644051  
      47A      0.664005    48A      0.683830    49A      0.765145  
      50A      0.802379    51A      0.827433    52A      0.850484  
      53A      0.857486    54A      0.872509    55A      0.875806  
      56A      0.885480    57A      0.892538    58A      0.900986  
      59A      0.908394    60A      0.911613    61A      0.917978  
      62A      0.926487    63A      0.942459    64A      0.946576  
      65A      0.954296    66A      0.977635    67A      0.996117  
      68A      1.053031    69A      1.094961    70A      1.116406  
      71A      1.125059    72A      1.144845    73A      1.220304  
      74A      1.246065    75A      1.397081    76A      1.476394  
      77A      1.491471    78A      1.498665    79A      1.506121  
      80A      1.582229    81A      1.602814    82A      1.627140  
      83A      1.632760    84A      1.668292    85A      1.707050  
      86A      1.725252    87A      1.733869    88A      1.817411  
      89A      1.838865    90A      1.851217    91A      1.880294  
      92A      1.890784    93A      1.916192    94A      1.922036  
      95A      1.925185    96A      1.946713    97A      1.951848  
      98A      1.957351    99A      1.963743   100A      1.974986  
     101A      1.988932   102A      1.999782   103A      2.004466  
     104A      2.032107   105A      2.046590   106A      2.068267  
     107A      2.095400   108A      2.109632   109A      2.131794  
     110A      2.178203   111A      2.234209   112A      2.257427  
     113A      2.285157   114A      2.315235   115A      2.328800  
     116A      2.352216   117A      2.435548   118A      2.455836  
     119A      2.470577   120A      2.480232   121A      2.511743  
     122A      2.567305   123A      2.583909   124A      2.587308  
     125A      2.655513   126A      2.711033   127A      2.757340  
     128A      2.769416   129A      2.796415   130A      2.799060  
     131A      2.811972   132A      2.841682   133A      2.851082  
     134A      2.873011   135A      2.879759   136A      2.922657  
     137A      2.954060   138A      2.959807   139A      3.004992  
     140A      3.090296  

    Final Occupation by Irrep:
              A 
    DOCC [    22 ]

  @RHF Final Energy:  -197.48162954494137

   => Energetics <=

    Nuclear Repulsion Energy =            182.1535848884412871
    One-Electron Energy =                -625.0453324849258934
    Two-Electron Energy =                 245.4101180515432361
    Total Energy =                       -197.4816295449413701

Computation Completed


Properties will be evaluated at   0.000000,   0.000000,   0.000000 [a0]

Properties computed using the SCF density matrix

  Nuclear Dipole Moment: [e a0]
     X:     0.1810      Y:     0.5455      Z:    -0.5655

  Electronic Dipole Moment: [e a0]
     X:    -0.1750      Y:    -0.5555      Z:     0.5268

  Dipole Moment: [e a0]
     X:     0.0060      Y:    -0.0100      Z:    -0.0387     Total:     0.0404

  Dipole Moment: [D]
     X:     0.0152      Y:    -0.0253      Z:    -0.0983     Total:     0.1027


*** tstop() called on ds3 at Tue Apr 28 11:52:55 2020
Module time:
	user time   =      16.25 seconds =       0.27 minutes
	system time =       7.31 seconds =       0.12 minutes
	total time  =         23 seconds =       0.38 minutes
Total time:
	user time   =      16.25 seconds =       0.27 minutes
	system time =       7.31 seconds =       0.12 minutes
	total time  =         23 seconds =       0.38 minutes
                                     G D M A

                                 by Anthony Stone

                           version 2.2.06, 22 June 2011

               Distributed Multipoles from Gaussian wavefunctions


Starting at 11:52:55 on 28 Apr 2020 


Using SCF density matrix from file ./SSI/SSI-065PRO-101LEU-1-dimer.test.13178.fchk


                         Distributed Multipole Analysis

Standard DMA

Positions and radii in angstrom
Multipole moments in atomic units, ea_0^k for rank k

C          x = -0.407643  y = -0.782375  z =  0.926733 angstrom
           Maximum rank =  0   Radius =  0.650 angstrom
                   Q00  =  -0.114161

C          x =  0.086357  y = -0.053375  z =  2.172733 angstrom
           Maximum rank =  0   Radius =  0.650 angstrom
                   Q00  =  -0.229489

C          x = -1.760643  y = -1.285375  z =  1.284733 angstrom
           Maximum rank =  0   Radius =  0.650 angstrom
                   Q00  =  -0.182022

H          x =  0.249357  y = -1.622375  z =  0.700733 angstrom
           Maximum rank =  0   Radius =  0.325 angstrom
                   Q00  =   0.049957

H          x = -0.464643  y = -0.106375  z =  0.075733 angstrom
           Maximum rank =  0   Radius =  0.325 angstrom
                   Q00  =   0.054827

H          x =  1.160357  y = -0.178375  z =  2.299733 angstrom
           Maximum rank =  0   Radius =  0.325 angstrom
                   Q00  =   0.083369

H          x = -0.172643  y =  0.997625  z =  2.085733 angstrom
           Maximum rank =  0   Radius =  0.325 angstrom
                   Q00  =   0.085277

H          x = -2.111643  y = -2.091375  z =  0.662733 angstrom
           Maximum rank =  0   Radius =  0.325 angstrom
                   Q00  =   0.069691

H          x = -2.462643  y = -0.468375  z =  1.191733 angstrom
           Maximum rank =  0   Radius =  0.325 angstrom
                   Q00  =   0.070791

H          x = -0.481383  y = -0.514285  z =  2.994463 angstrom
           Maximum rank =  0   Radius =  0.325 angstrom
                   Q00  =   0.061978

H          x = -1.656723  y = -1.565375  z =  2.343413 angstrom
           Maximum rank =  0   Radius =  0.325 angstrom
                   Q00  =   0.048115

C          x =  1.122357  y =  0.292625  z = -2.212267 angstrom
           Maximum rank =  0   Radius =  0.650 angstrom
                   Q00  =  -0.227477

C          x =  0.943357  y =  1.779625  z = -2.121267 angstrom
           Maximum rank =  0   Radius =  0.650 angstrom
                   Q00  =  -0.199797

H          x =  1.462357  y = -0.090375  z = -1.253267 angstrom
           Maximum rank =  0   Radius =  0.325 angstrom
                   Q00  =   0.077683

H          x =  0.174357  y = -0.181375  z = -2.456267 angstrom
           Maximum rank =  0   Radius =  0.325 angstrom
                   Q00  =   0.073744

H          x =  1.855357  y =  0.044625  z = -2.981267 angstrom
           Maximum rank =  0   Radius =  0.325 angstrom
                   Q00  =   0.075909

H          x =  0.178357  y =  1.996625  z = -1.377267 angstrom
           Maximum rank =  0   Radius =  0.325 angstrom
                   Q00  =   0.072499

H          x =  1.892887  y =  2.229325  z = -1.795448 angstrom
           Maximum rank =  0   Radius =  0.325 angstrom
                   Q00  =   0.065955

H          x =  0.569717  y =  2.131995  z = -3.094009 angstrom
           Maximum rank =  0   Radius =  0.325 angstrom
                   Q00  =   0.063152

Total multipoles referred to origin at
           x =   0.000000,  y =    0.000000,  z =    0.000000 angstrom
                   Q00  =  -0.000000

Finished at 11:52:55 on 28 Apr 2020 

  DMA results are available in the Python driver through the
	  variable('DMA DISTRIBUTED MULTIPOLES')
  and
	  variable('DMA TOTAL MULTIPOLES')
  commands.


    Psi4 stopped on: Tuesday, 28 April 2020 11:52AM
    Psi4 wall time for execution: 0:00:23.18

*** Psi4 exiting successfully. Buy a developer a beer!
