
    -----------------------------------------------------------------------
          Psi4: An Open-Source Ab Initio Electronic Structure Package
                               Psi4 1.3.2 release

                         Git: Rev {HEAD} ecbda83 


    R. M. Parrish, L. A. Burns, D. G. A. Smith, A. C. Simmonett,
    A. E. DePrince III, E. G. Hohenstein, U. Bozkaya, A. Yu. Sokolov,
    R. Di Remigio, R. M. Richard, J. F. Gonthier, A. M. James,
    H. R. McAlexander, A. Kumar, M. Saitow, X. Wang, B. P. Pritchard,
    P. Verma, H. F. Schaefer III, K. Patkowski, R. A. King, E. F. Valeev,
    F. A. Evangelista, J. M. Turney, T. D. Crawford, and C. D. Sherrill,
    J. Chem. Theory Comput. 13(7) pp 3185--3197 (2017).
    (doi: 10.1021/acs.jctc.7b00174)


                         Additional Contributions by
    P. Kraus, H. Kruse, M. H. Lechner, M. C. Schieber, R. A. Shaw,
    A. Alenaizan, R. Galvelis, Z. L. Glick, S. Lehtola, and J. P. Misiewicz

    -----------------------------------------------------------------------


    Psi4 started on: Monday, 27 April 2020 11:42PM

    Process ID: 3761
    Host:       ds3
    PSIDATADIR: /theoryfs2/ds/metcalf/miniconda2/envs/tf2gpu/share/psi4
    Memory:     500.0 MiB
    Threads:    1
    
  ==> Input File <==

--------------------------------------------------------------------------
import numpy as np
set {scf_type pk
basis cc-pvdz
d_convergence 10
gdma_switch   0
gdma_limit    0
gdma_origin   [ 0.0,  0.0,  0.0 ]
}
molecule test {
    units Angstrom
    0 1
    --
    0 1
    C               -0.613686871641883     2.116478817923627    -0.183064180932692
    C               -0.884686871641883     2.761478817923627    -1.534064180932692
    H               -0.864686871641883     2.798478817923627     0.628935819067308
    H               -1.229686871641883     1.227478817923627    -0.078064180932692
    H                0.443313128358117     1.853478817923627    -0.102064180932692
    H               -0.536686871641883     2.087478817923627    -2.320064180932692
    H               -0.342206871641883     3.714958817923627    -1.615214180932692
    H               -1.966736871641883     2.902868817923627    -1.672564180932692
    C                0.484313128358117    -1.119521182076373     0.488935819067308
    C                1.496313128358117    -1.708521182076373     1.484935819067308
    C               -0.453686871641883    -2.126521182076373    -0.219064180932692
    H               -0.123686871641883    -0.398521182076373     1.034935819067308
    H                1.030313128358117    -0.581521182076373    -0.290064180932692
    H                1.960313128358117    -2.588521182076373     1.029935819067308
    H                0.125313128358117    -2.722521182076373    -0.926064180932692
    H               -0.897686871641883    -2.795521182076373     0.519935819067308
    H                1.014903128358117    -1.996021182076373     2.431285819067308
    H                2.307733128358117    -0.987411182076373     1.662705819067308
    H               -1.260636871641883    -1.602571182076373    -0.752274180932692

}
e, wfn = energy('scf', return_wfn=True)
gdma(wfn)
dmavals = variable('DMA DISTRIBUTED MULTIPOLES')
charges = np.array(dmavals)
print(charges)
np.save('SSI-077ALA-138ARG-2-dimer.npy', np.array(charges))--------------------------------------------------------------------------

*** tstart() called on ds3
*** at Mon Apr 27 23:42:08 2020

   => Loading Basis Set <=

    Name: CC-PVDZ
    Role: ORBITAL
    Keyword: BASIS
    atoms 1-2, 9-11  entry C          line   138 file /theoryfs2/ds/metcalf/miniconda2/envs/tf2gpu/share/psi4/basis/cc-pvdz.gbs 
    atoms 3-8, 12-19 entry H          line    22 file /theoryfs2/ds/metcalf/miniconda2/envs/tf2gpu/share/psi4/basis/cc-pvdz.gbs 


         ---------------------------------------------------------
                                   SCF
               by Justin Turney, Rob Parrish, Andy Simmonett
                          and Daniel G. A. Smith
                              RHF Reference
                        1 Threads,    500 MiB Core
         ---------------------------------------------------------

  ==> Geometry <==

    Molecular point group: c1
    Full point group: C1

    Geometry (in Angstrom), charge = 0, multiplicity = 1:

       Center              X                  Y                   Z               Mass       
    ------------   -----------------  -----------------  -----------------  -----------------
         C           -0.613686871642     2.116478817924    -0.183064180933    12.000000000000
         C           -0.884686871642     2.761478817924    -1.534064180933    12.000000000000
         H           -0.864686871642     2.798478817924     0.628935819067     1.007825032230
         H           -1.229686871642     1.227478817924    -0.078064180933     1.007825032230
         H            0.443313128358     1.853478817924    -0.102064180933     1.007825032230
         H           -0.536686871642     2.087478817924    -2.320064180933     1.007825032230
         H           -0.342206871642     3.714958817924    -1.615214180933     1.007825032230
         H           -1.966736871642     2.902868817924    -1.672564180933     1.007825032230
         C            0.484313128358    -1.119521182076     0.488935819067    12.000000000000
         C            1.496313128358    -1.708521182076     1.484935819067    12.000000000000
         C           -0.453686871642    -2.126521182076    -0.219064180933    12.000000000000
         H           -0.123686871642    -0.398521182076     1.034935819067     1.007825032230
         H            1.030313128358    -0.581521182076    -0.290064180933     1.007825032230
         H            1.960313128358    -2.588521182076     1.029935819067     1.007825032230
         H            0.125313128358    -2.722521182076    -0.926064180933     1.007825032230
         H           -0.897686871642    -2.795521182076     0.519935819067     1.007825032230
         H            1.014903128358    -1.996021182076     2.431285819067     1.007825032230
         H            2.307733128358    -0.987411182076     1.662705819067     1.007825032230
         H           -1.260636871642    -1.602571182076    -0.752274180933     1.007825032230

  Running in c1 symmetry.

  Rotational constants: A =      0.22790  B =      0.04140  C =      0.03696 [cm^-1]
  Rotational constants: A =   6832.24431  B =   1241.12284  C =   1108.15998 [MHz]
  Nuclear repulsion =  178.529438943792940

  Charge       = 0
  Multiplicity = 1
  Electrons    = 44
  Nalpha       = 22
  Nbeta        = 22

  ==> Algorithm <==

  SCF Algorithm Type is PK.
  DIIS enabled.
  MOM disabled.
  Fractional occupation disabled.
  Guess Type is SAD.
  Energy threshold   = 1.00e-06
  Density threshold  = 1.00e-10
  Integral threshold = 0.00e+00

  ==> Primary Basis <==

  Basis Set: CC-PVDZ
    Blend: CC-PVDZ
    Number of shells: 72
    Number of basis function: 140
    Number of Cartesian functions: 145
    Spherical Harmonics?: true
    Max angular momentum: 2

  ==> Pre-Iterations <==

   -------------------------------------------------------
    Irrep   Nso     Nmo     Nalpha   Nbeta   Ndocc  Nsocc
   -------------------------------------------------------
     A        140     140       0       0       0       0
   -------------------------------------------------------
    Total     140     140      22      22      22       0
   -------------------------------------------------------

  ==> Integral Setup <==

  Using integral reordering PK algorithm.
  Sizing the integral batches needed.
  Building batch lookup table.
   Calculation information:
      Number of atoms:                  19
      Number of AO shells:              72
      Number of primitives:            180
      Number of atomic orbitals:       145
      Number of basis functions:       140

      Integral cutoff                 1.00e-12
      Number of threads:                 1

	Batch   1 pq = [       0,    9405] index = [             0,44231715] size =     44231715
	Batch   2 pq = [    9405,    9870] index = [      44231715,48713385] size =      4481670
  Task number: 5
  Buffer size: 11059200
  Buffer per thread: 2
  We computed 2924420 shell quartets total.
  Whereas there are 3454506 unique shell quartets.

  ==> DiskJK: Disk-Based J/K Matrices <==

    J tasked:                  Yes
    K tasked:                  Yes
    wK tasked:                  No
    Memory [MiB]:              375
    Schwarz Cutoff:          1E-12

    OpenMP threads:              1

  Minimum eigenvalue in the overlap matrix is 5.5435792045E-03.
  Using Symmetric Orthogonalization.

  SCF Guess: Superposition of Atomic Densities via on-the-fly atomic UHF.

  ==> Iterations <==

                        Total Energy        Delta E     RMS |[F,P]|

   @RHF iter SAD:  -196.33155374596043   -1.96332e+02   0.00000e+00 
   @RHF iter   1:  -197.31085981785353   -9.79306e-01   3.77147e-03 DIIS
   @RHF iter   2:  -197.46988002450058   -1.59020e-01   1.60809e-03 DIIS
   @RHF iter   3:  -197.49733366825413   -2.74536e-02   3.24536e-04 DIIS
   @RHF iter   4:  -197.49955621843660   -2.22255e-03   4.85998e-05 DIIS
   @RHF iter   5:  -197.49959538200804   -3.91636e-05   1.49081e-05 DIIS
   @RHF iter   6:  -197.49959881175846   -3.42975e-06   2.46525e-06 DIIS
   @RHF iter   7:  -197.49959892473726   -1.12979e-07   4.91047e-07 DIIS
   @RHF iter   8:  -197.49959893008477   -5.34752e-09   1.36794e-07 DIIS
   @RHF iter   9:  -197.49959893047486   -3.90088e-10   4.28389e-08 DIIS
   @RHF iter  10:  -197.49959893051926   -4.43947e-11   9.01386e-09 DIIS
   @RHF iter  11:  -197.49959893052070   -1.44951e-12   1.67666e-09 DIIS
   @RHF iter  12:  -197.49959893052124   -5.40012e-13   3.37392e-10 DIIS
   @RHF iter  13:  -197.49959893052133   -8.52651e-14   7.65066e-11 DIIS
  Energy and wave function converged.


  ==> Post-Iterations <==

    Orbital Energies [Eh]
    ---------------------

    Doubly Occupied:                                                      

       1A    -11.219771     2A    -11.218485     3A    -11.218448  
       4A    -11.218307     5A    -11.214462     6A     -1.046652  
       7A     -1.019407     8A     -0.924661     9A     -0.835915  
      10A     -0.794548    11A     -0.623607    12A     -0.601393  
      13A     -0.598036    14A     -0.587535    15A     -0.546163  
      16A     -0.535849    17A     -0.501806    18A     -0.488274  
      19A     -0.483833    20A     -0.474233    21A     -0.465912  
      22A     -0.456515  

    Virtual:                                                              

      23A      0.168879    24A      0.194729    25A      0.213620  
      26A      0.227770    27A      0.234136    28A      0.251028  
      29A      0.257960    30A      0.265164    31A      0.272910  
      32A      0.283567    33A      0.290496    34A      0.305188  
      35A      0.317878    36A      0.338993    37A      0.375332  
      38A      0.408833    39A      0.428116    40A      0.574646  
      41A      0.586321    42A      0.600883    43A      0.606957  
      44A      0.614885    45A      0.626782    46A      0.632636  
      47A      0.652749    48A      0.690389    49A      0.769433  
      50A      0.787749    51A      0.812831    52A      0.853098  
      53A      0.872129    54A      0.880208    55A      0.889097  
      56A      0.891115    57A      0.893703    58A      0.897447  
      59A      0.899585    60A      0.905605    61A      0.909921  
      62A      0.917859    63A      0.929165    64A      0.941796  
      65A      0.960445    66A      0.970196    67A      0.976236  
      68A      0.993142    69A      1.109373    70A      1.125033  
      71A      1.125776    72A      1.184147    73A      1.211268  
      74A      1.243368    75A      1.374695    76A      1.458677  
      77A      1.473482    78A      1.486283    79A      1.495837  
      80A      1.516432    81A      1.585925    82A      1.651904  
      83A      1.677053    84A      1.680121    85A      1.687646  
      86A      1.702248    87A      1.713894    88A      1.852044  
      89A      1.854465    90A      1.867010    91A      1.873554  
      92A      1.895546    93A      1.904548    94A      1.915348  
      95A      1.933034    96A      1.936517    97A      1.943540  
      98A      1.946018    99A      1.957852   100A      1.964255  
     101A      1.969042   102A      1.971839   103A      1.985403  
     104A      1.989101   105A      2.022755   106A      2.034164  
     107A      2.045904   108A      2.107068   109A      2.113496  
     110A      2.145129   111A      2.181592   112A      2.272078  
     113A      2.281221   114A      2.301952   115A      2.315649  
     116A      2.328158   117A      2.349484   118A      2.462489  
     119A      2.472153   120A      2.482384   121A      2.527320  
     122A      2.568177   123A      2.570940   124A      2.584513  
     125A      2.612856   126A      2.643131   127A      2.747728  
     128A      2.756414   129A      2.761557   130A      2.780997  
     131A      2.795060   132A      2.813748   133A      2.844402  
     134A      2.863967   135A      2.900052   136A      2.936430  
     137A      2.961004   138A      2.962808   139A      2.980099  
     140A      3.057686  

    Final Occupation by Irrep:
              A 
    DOCC [    22 ]

  @RHF Final Energy:  -197.49959893052133

   => Energetics <=

    Nuclear Repulsion Energy =            178.5294389437929397
    One-Electron Energy =                -617.9104538372449724
    Two-Electron Energy =                 241.8814159629307312
    Total Energy =                       -197.4995989305213300

Computation Completed


Properties will be evaluated at   0.000000,   0.000000,   0.000000 [a0]

Properties computed using the SCF density matrix

  Nuclear Dipole Moment: [e a0]
     X:    -0.3189      Y:     0.8551      Z:    -0.4206

  Electronic Dipole Moment: [e a0]
     X:     0.3227      Y:    -0.8349      Z:     0.4233

  Dipole Moment: [e a0]
     X:     0.0038      Y:     0.0202      Z:     0.0027     Total:     0.0207

  Dipole Moment: [D]
     X:     0.0098      Y:     0.0512      Z:     0.0070     Total:     0.0526


*** tstop() called on ds3 at Mon Apr 27 23:42:30 2020
Module time:
	user time   =      16.27 seconds =       0.27 minutes
	system time =       6.33 seconds =       0.11 minutes
	total time  =         22 seconds =       0.37 minutes
Total time:
	user time   =      16.27 seconds =       0.27 minutes
	system time =       6.33 seconds =       0.11 minutes
	total time  =         22 seconds =       0.37 minutes
                                     G D M A

                                 by Anthony Stone

                           version 2.2.06, 22 June 2011

               Distributed Multipoles from Gaussian wavefunctions


Starting at 23:42:30 on 27 Apr 2020 


Using SCF density matrix from file ./SSI/SSI-077ALA-138ARG-2-dimer.test.3761.fchk


                         Distributed Multipole Analysis

Standard DMA

Positions and radii in angstrom
Multipole moments in atomic units, ea_0^k for rank k

C          x = -0.613687  y =  2.116479  z = -0.183064 angstrom
           Maximum rank =  0   Radius =  0.650 angstrom
                   Q00  =  -0.220381

C          x = -0.884687  y =  2.761479  z = -1.534064 angstrom
           Maximum rank =  0   Radius =  0.650 angstrom
                   Q00  =  -0.243083

H          x = -0.864687  y =  2.798479  z =  0.628936 angstrom
           Maximum rank =  0   Radius =  0.325 angstrom
                   Q00  =   0.076979

H          x = -1.229687  y =  1.227479  z = -0.078064 angstrom
           Maximum rank =  0   Radius =  0.325 angstrom
                   Q00  =   0.077422

H          x =  0.443313  y =  1.853479  z = -0.102064 angstrom
           Maximum rank =  0   Radius =  0.325 angstrom
                   Q00  =   0.078292

H          x = -0.536687  y =  2.087479  z = -2.320064 angstrom
           Maximum rank =  0   Radius =  0.325 angstrom
                   Q00  =   0.075910

H          x = -0.342207  y =  3.714959  z = -1.615214 angstrom
           Maximum rank =  0   Radius =  0.325 angstrom
                   Q00  =   0.079128

H          x = -1.966737  y =  2.902869  z = -1.672564 angstrom
           Maximum rank =  0   Radius =  0.325 angstrom
                   Q00  =   0.077892

C          x =  0.484313  y = -1.119521  z =  0.488936 angstrom
           Maximum rank =  0   Radius =  0.650 angstrom
                   Q00  =  -0.078884

C          x =  1.496313  y = -1.708521  z =  1.484936 angstrom
           Maximum rank =  0   Radius =  0.650 angstrom
                   Q00  =  -0.247869

C          x = -0.453687  y = -2.126521  z = -0.219064 angstrom
           Maximum rank =  0   Radius =  0.650 angstrom
                   Q00  =  -0.246333

H          x = -0.123687  y = -0.398521  z =  1.034936 angstrom
           Maximum rank =  0   Radius =  0.325 angstrom
                   Q00  =   0.046374

H          x =  1.030313  y = -0.581521  z = -0.290064 angstrom
           Maximum rank =  0   Radius =  0.325 angstrom
                   Q00  =   0.042162

H          x =  1.960313  y = -2.588521  z =  1.029936 angstrom
           Maximum rank =  0   Radius =  0.325 angstrom
                   Q00  =   0.072627

H          x =  0.125313  y = -2.722521  z = -0.926064 angstrom
           Maximum rank =  0   Radius =  0.325 angstrom
                   Q00  =   0.080012

H          x = -0.897687  y = -2.795521  z =  0.519936 angstrom
           Maximum rank =  0   Radius =  0.325 angstrom
                   Q00  =   0.076887

H          x =  1.014903  y = -1.996021  z =  2.431286 angstrom
           Maximum rank =  0   Radius =  0.325 angstrom
                   Q00  =   0.082769

H          x =  2.307733  y = -0.987411  z =  1.662706 angstrom
           Maximum rank =  0   Radius =  0.325 angstrom
                   Q00  =   0.084654

H          x = -1.260637  y = -1.602571  z = -0.752274 angstrom
           Maximum rank =  0   Radius =  0.325 angstrom
                   Q00  =   0.085442

Total multipoles referred to origin at
           x =   0.000000,  y =    0.000000,  z =    0.000000 angstrom
                   Q00  =  -0.000000

Finished at 23:42:30 on 27 Apr 2020 

  DMA results are available in the Python driver through the
	  variable('DMA DISTRIBUTED MULTIPOLES')
  and
	  variable('DMA TOTAL MULTIPOLES')
  commands.


    Psi4 stopped on: Monday, 27 April 2020 11:42PM
    Psi4 wall time for execution: 0:00:22.03

*** Psi4 exiting successfully. Buy a developer a beer!
