
    -----------------------------------------------------------------------
          Psi4: An Open-Source Ab Initio Electronic Structure Package
                               Psi4 1.3.2 release

                         Git: Rev {HEAD} ecbda83 


    R. M. Parrish, L. A. Burns, D. G. A. Smith, A. C. Simmonett,
    A. E. DePrince III, E. G. Hohenstein, U. Bozkaya, A. Yu. Sokolov,
    R. Di Remigio, R. M. Richard, J. F. Gonthier, A. M. James,
    H. R. McAlexander, A. Kumar, M. Saitow, X. Wang, B. P. Pritchard,
    P. Verma, H. F. Schaefer III, K. Patkowski, R. A. King, E. F. Valeev,
    F. A. Evangelista, J. M. Turney, T. D. Crawford, and C. D. Sherrill,
    J. Chem. Theory Comput. 13(7) pp 3185--3197 (2017).
    (doi: 10.1021/acs.jctc.7b00174)


                         Additional Contributions by
    P. Kraus, H. Kruse, M. H. Lechner, M. C. Schieber, R. A. Shaw,
    A. Alenaizan, R. Galvelis, Z. L. Glick, S. Lehtola, and J. P. Misiewicz

    -----------------------------------------------------------------------


    Psi4 started on: Monday, 27 April 2020 12:49PM

    Process ID: 4244
    Host:       ds3
    PSIDATADIR: /theoryfs2/ds/metcalf/miniconda2/envs/tf2gpu/share/psi4
    Memory:     500.0 MiB
    Threads:    1
    
  ==> Input File <==

--------------------------------------------------------------------------
import numpy as np
set {scf_type pk
basis cc-pvdz
d_convergence 10
gdma_switch   0
gdma_limit    0
gdma_origin   [ 0.0,  0.0,  0.0 ]
}
molecule test {
    units Angstrom
    0 1
    --
    0 1
    C               -1.780176432977140    -1.263468058579310     2.216946340542312
    C               -0.565176432977140    -0.685468058579310    -1.343053659457688
    C               -1.400176432977140    -0.847468058579310    -0.240053659457688
    C                0.808823567022860    -0.691468058579310    -1.174053659457688
    C               -0.874176432977140    -1.028468058579310     1.036946340542312
    C                1.342823567022860    -0.870468058579310     0.087946340542312
    C                0.495823567022860    -1.037468058579310     1.185946340542312
    H               -0.990176432977140    -0.558468058579310    -2.329053659457688
    H               -2.466176432977139    -0.845468058579310    -0.393053659457688
    H                1.461823567022860    -0.572468058579310    -2.026053659457688
    H                2.413823567022860    -0.895468058579310     0.222946340542312
    H               -2.613176432977140    -0.563468058579310     2.165946340542312
    H               -1.235176432977140    -1.047468058579310     3.134946340542312
    H                0.926823567022860    -1.196468058579310     2.163946340542312
    H               -2.165386432977140    -2.292599058579309     2.266976340542312
    C                0.361823567022860     2.681531941420690    -0.415053659457688
    C                1.527823567022860     2.987531941420690    -1.347053659457688
    H               -0.036176432977140     3.603531941420691     0.006946340542312
    H               -0.426176432977140     2.176531941420691    -0.974053659457688
    H                0.685823567022860     2.023531941420690     0.388946340542312
    H                1.996823567022860     2.047531941420691    -1.646053659457688
    H                2.269693567022860     3.616471941420691    -0.833183659457688
    H                1.160993567022860     3.496461941420690    -2.250613659457688

}
e, wfn = energy('scf', return_wfn=True)
gdma(wfn)
dmavals = variable('DMA DISTRIBUTED MULTIPOLES')
charges = np.array(dmavals)
print(charges)
np.save('SSI-184PHE-205THR-1-dimer.npy', np.array(charges))--------------------------------------------------------------------------

*** tstart() called on ds3
*** at Mon Apr 27 12:49:39 2020

   => Loading Basis Set <=

    Name: CC-PVDZ
    Role: ORBITAL
    Keyword: BASIS
    atoms 1-7, 16-17  entry C          line   138 file /theoryfs2/ds/metcalf/miniconda2/envs/tf2gpu/share/psi4/basis/cc-pvdz.gbs 
    atoms 8-15, 18-23 entry H          line    22 file /theoryfs2/ds/metcalf/miniconda2/envs/tf2gpu/share/psi4/basis/cc-pvdz.gbs 


         ---------------------------------------------------------
                                   SCF
               by Justin Turney, Rob Parrish, Andy Simmonett
                          and Daniel G. A. Smith
                              RHF Reference
                        1 Threads,    500 MiB Core
         ---------------------------------------------------------

  ==> Geometry <==

    Molecular point group: c1
    Full point group: C1

    Geometry (in Angstrom), charge = 0, multiplicity = 1:

       Center              X                  Y                   Z               Mass       
    ------------   -----------------  -----------------  -----------------  -----------------
         C           -1.780176432977    -1.263468058579     2.216946340542    12.000000000000
         C           -0.565176432977    -0.685468058579    -1.343053659458    12.000000000000
         C           -1.400176432977    -0.847468058579    -0.240053659458    12.000000000000
         C            0.808823567023    -0.691468058579    -1.174053659458    12.000000000000
         C           -0.874176432977    -1.028468058579     1.036946340542    12.000000000000
         C            1.342823567023    -0.870468058579     0.087946340542    12.000000000000
         C            0.495823567023    -1.037468058579     1.185946340542    12.000000000000
         H           -0.990176432977    -0.558468058579    -2.329053659458     1.007825032230
         H           -2.466176432977    -0.845468058579    -0.393053659458     1.007825032230
         H            1.461823567023    -0.572468058579    -2.026053659458     1.007825032230
         H            2.413823567023    -0.895468058579     0.222946340542     1.007825032230
         H           -2.613176432977    -0.563468058579     2.165946340542     1.007825032230
         H           -1.235176432977    -1.047468058579     3.134946340542     1.007825032230
         H            0.926823567023    -1.196468058579     2.163946340542     1.007825032230
         H           -2.165386432977    -2.292599058579     2.266976340542     1.007825032230
         C            0.361823567023     2.681531941421    -0.415053659458    12.000000000000
         C            1.527823567023     2.987531941421    -1.347053659458    12.000000000000
         H           -0.036176432977     3.603531941421     0.006946340542     1.007825032230
         H           -0.426176432977     2.176531941421    -0.974053659458     1.007825032230
         H            0.685823567023     2.023531941421     0.388946340542     1.007825032230
         H            1.996823567023     2.047531941421    -1.646053659458     1.007825032230
         H            2.269693567023     3.616471941421    -0.833183659458     1.007825032230
         H            1.160993567023     3.496461941421    -2.250613659458     1.007825032230

  Running in c1 symmetry.

  Rotational constants: A =      0.07596  B =      0.02946  C =      0.02765 [cm^-1]
  Rotational constants: A =   2277.31368  B =    883.31304  C =    829.07513 [MHz]
  Nuclear repulsion =  421.522416909278832

  Charge       = 0
  Multiplicity = 1
  Electrons    = 68
  Nalpha       = 34
  Nbeta        = 34

  ==> Algorithm <==

  SCF Algorithm Type is PK.
  DIIS enabled.
  MOM disabled.
  Fractional occupation disabled.
  Guess Type is SAD.
  Energy threshold   = 1.00e-06
  Density threshold  = 1.00e-10
  Integral threshold = 0.00e+00

  ==> Primary Basis <==

  Basis Set: CC-PVDZ
    Blend: CC-PVDZ
    Number of shells: 96
    Number of basis function: 196
    Number of Cartesian functions: 205
    Spherical Harmonics?: true
    Max angular momentum: 2

  ==> Pre-Iterations <==

   -------------------------------------------------------
    Irrep   Nso     Nmo     Nalpha   Nbeta   Ndocc  Nsocc
   -------------------------------------------------------
     A        196     196       0       0       0       0
   -------------------------------------------------------
    Total     196     196      34      34      34       0
   -------------------------------------------------------

  ==> Integral Setup <==

  Using integral reordering PK algorithm.
  Sizing the integral batches needed.
  Building batch lookup table.
   Calculation information:
      Number of atoms:                  23
      Number of AO shells:              96
      Number of primitives:            268
      Number of atomic orbitals:       205
      Number of basis functions:       196

      Integral cutoff                 1.00e-12
      Number of threads:                 1

	Batch   1 pq = [       0,    9405] index = [             0,44231715] size =     44231715
	Batch   2 pq = [    9405,   13301] index = [      44231715,88464951] size =     44233236
	Batch   3 pq = [   13301,   16290] index = [      88464951,132690195] size =     44225244
	Batch   4 pq = [   16290,   18810] index = [     132690195,176917455] size =     44227260
	Batch   5 pq = [   18810,   19306] index = [     176917455,186370471] size =      9453016
  Task number: 17
  Buffer size: 11059200
  Buffer per thread: 2
  We computed 10743695 shell quartets total.
  Whereas there are 10841496 unique shell quartets.

  ==> DiskJK: Disk-Based J/K Matrices <==

    J tasked:                  Yes
    K tasked:                  Yes
    wK tasked:                  No
    Memory [MiB]:              375
    Schwarz Cutoff:          1E-12

    OpenMP threads:              1

  Minimum eigenvalue in the overlap matrix is 2.9809408728E-04.
  Using Symmetric Orthogonalization.

  SCF Guess: Superposition of Atomic Densities via on-the-fly atomic UHF.

  ==> Iterations <==

                        Total Energy        Delta E     RMS |[F,P]|

   @RHF iter SAD:  -347.94957255997844   -3.47950e+02   0.00000e+00 
   @RHF iter   1:  -348.76410022661503   -8.14528e-01   2.91705e-03 DIIS
   @RHF iter   2:  -348.95776658867413   -1.93666e-01   1.22259e-03 DIIS
   @RHF iter   3:  -348.98886998268284   -3.11034e-02   2.59554e-04 DIIS
   @RHF iter   4:  -348.99135454445258   -2.48456e-03   5.04894e-05 DIIS
   @RHF iter   5:  -348.99142433276813   -6.97883e-05   1.57471e-05 DIIS
   @RHF iter   6:  -348.99143075037688   -6.41761e-06   4.27437e-06 DIIS
   @RHF iter   7:  -348.99143128323942   -5.32863e-07   1.39475e-06 DIIS
   @RHF iter   8:  -348.99143135275546   -6.95160e-08   3.85803e-07 DIIS
   @RHF iter   9:  -348.99143136639026   -1.36348e-08   1.86289e-07 DIIS
   @RHF iter  10:  -348.99143137018876   -3.79850e-09   8.37554e-08 DIIS
   @RHF iter  11:  -348.99143137122752   -1.03876e-09   2.56947e-08 DIIS
   @RHF iter  12:  -348.99143137129636   -6.88374e-11   9.98156e-09 DIIS
   @RHF iter  13:  -348.99143137130500   -8.64020e-12   3.74721e-09 DIIS
   @RHF iter  14:  -348.99143137130210    2.89901e-12   1.09253e-09 DIIS
   @RHF iter  15:  -348.99143137130181    2.84217e-13   5.10235e-10 DIIS
   @RHF iter  16:  -348.99143137130460   -2.78533e-12   2.22048e-10 DIIS
   @RHF iter  17:  -348.99143137130534   -7.38964e-13   8.04536e-11 DIIS
  Energy and wave function converged.


  ==> Post-Iterations <==

    Orbital Energies [Eh]
    ---------------------

    Doubly Occupied:                                                      

       1A    -11.239636     2A    -11.235044     3A    -11.234876  
       4A    -11.230504     5A    -11.230059     6A    -11.229887  
       7A    -11.229730     8A    -11.210518     9A    -11.202290  
      10A     -1.156726    11A     -1.047950    12A     -1.012006  
      13A     -1.008659    14A     -0.933717    15A     -0.827822  
      16A     -0.825101    17A     -0.796895    18A     -0.693436  
      19A     -0.633599    20A     -0.630223    21A     -0.590949  
      22A     -0.588029    23A     -0.582030    24A     -0.578304  
      25A     -0.565147    26A     -0.535816    27A     -0.495977  
      28A     -0.486295    29A     -0.485737    30A     -0.481457  
      31A     -0.474832    32A     -0.471727    33A     -0.331882  
      34A     -0.325681  

    Virtual:                                                              

      35A      0.134066    36A      0.140903    37A      0.176010  
      38A      0.195566    39A      0.212019    40A      0.214210  
      41A      0.235758    42A      0.251830    43A      0.255677  
      44A      0.261359    45A      0.268367    46A      0.279474  
      47A      0.285063    48A      0.292275    49A      0.312797  
      50A      0.327382    51A      0.367826    52A      0.376807  
      53A      0.409940    54A      0.453821    55A      0.462000  
      56A      0.478007    57A      0.496924    58A      0.560617  
      59A      0.576913    60A      0.595831    61A      0.605228  
      62A      0.609711    63A      0.640251    64A      0.651993  
      65A      0.680319    66A      0.684382    67A      0.696510  
      68A      0.706124    69A      0.738286    70A      0.742256  
      71A      0.749674    72A      0.759615    73A      0.770482  
      74A      0.796662    75A      0.808822    76A      0.833206  
      77A      0.839746    78A      0.860362    79A      0.862447  
      80A      0.873618    81A      0.882263    82A      0.888479  
      83A      0.895277    84A      0.900463    85A      0.904468  
      86A      0.912795    87A      0.922689    88A      0.924273  
      89A      0.939240    90A      0.941285    91A      0.979016  
      92A      0.983901    93A      0.990458    94A      1.009906  
      95A      1.047402    96A      1.062803    97A      1.125090  
      98A      1.135607    99A      1.138976   100A      1.156724  
     101A      1.157649   102A      1.173556   103A      1.198681  
     104A      1.217375   105A      1.235387   106A      1.254889  
     107A      1.266824   108A      1.289198   109A      1.299560  
     110A      1.315291   111A      1.327119   112A      1.331852  
     113A      1.412002   114A      1.484123   115A      1.499280  
     116A      1.513312   117A      1.521838   118A      1.554189  
     119A      1.599329   120A      1.615110   121A      1.667231  
     122A      1.686460   123A      1.697131   124A      1.705271  
     125A      1.735563   126A      1.758460   127A      1.782109  
     128A      1.791759   129A      1.821321   130A      1.861747  
     131A      1.873864   132A      1.884396   133A      1.889887  
     134A      1.894712   135A      1.908829   136A      1.921238  
     137A      1.925476   138A      1.938407   139A      1.944457  
     140A      1.948773   141A      1.961540   142A      1.963078  
     143A      1.967602   144A      1.971481   145A      1.977558  
     146A      1.995040   147A      1.996449   148A      2.015993  
     149A      2.049723   150A      2.068822   151A      2.094209  
     152A      2.114744   153A      2.125000   154A      2.140586  
     155A      2.157184   156A      2.162698   157A      2.183335  
     158A      2.185609   159A      2.190280   160A      2.257397  
     161A      2.278434   162A      2.292390   163A      2.301866  
     164A      2.304633   165A      2.323563   166A      2.329014  
     167A      2.354906   168A      2.461915   169A      2.468129  
     170A      2.472576   171A      2.487160   172A      2.508351  
     173A      2.542395   174A      2.585692   175A      2.590700  
     176A      2.629198   177A      2.741766   178A      2.760962  
     179A      2.770724   180A      2.775407   181A      2.797859  
     182A      2.814573   183A      2.817497   184A      2.849026  
     185A      2.859574   186A      2.869325   187A      2.885904  
     188A      2.961987   189A      2.975456   190A      3.010078  
     191A      3.029864   192A      3.042942   193A      3.163748  
     194A      3.213253   195A      3.306494   196A      3.982788  

    Final Occupation by Irrep:
              A 
    DOCC [    34 ]

  @RHF Final Energy:  -348.99143137130534

   => Energetics <=

    Nuclear Repulsion Energy =            421.5224169092788316
    One-Electron Energy =               -1305.8226145305966384
    Two-Electron Energy =                 535.3087662500124679
    Total Energy =                       -348.9914313713053389

Computation Completed


Properties will be evaluated at   0.000000,   0.000000,   0.000000 [a0]

Properties computed using the SCF density matrix

  Nuclear Dipole Moment: [e a0]
     X:     0.9219      Y:     8.4299      Z:    -0.0951

  Electronic Dipole Moment: [e a0]
     X:    -1.0471      Y:    -8.5824      Z:     0.2193

  Dipole Moment: [e a0]
     X:    -0.1252      Y:    -0.1525      Z:     0.1243     Total:     0.2332

  Dipole Moment: [D]
     X:    -0.3183      Y:    -0.3876      Z:     0.3158     Total:     0.5927


*** tstop() called on ds3 at Mon Apr 27 12:51:38 2020
Module time:
	user time   =      87.69 seconds =       1.46 minutes
	system time =      35.60 seconds =       0.59 minutes
	total time  =        119 seconds =       1.98 minutes
Total time:
	user time   =      87.69 seconds =       1.46 minutes
	system time =      35.60 seconds =       0.59 minutes
	total time  =        119 seconds =       1.98 minutes
                                     G D M A

                                 by Anthony Stone

                           version 2.2.06, 22 June 2011

               Distributed Multipoles from Gaussian wavefunctions


Starting at 12:51:38 on 27 Apr 2020 


Using SCF density matrix from file ./SSI/SSI-184PHE-205THR-1-dimer.test.4244.fchk


                         Distributed Multipole Analysis

Standard DMA

Positions and radii in angstrom
Multipole moments in atomic units, ea_0^k for rank k

C          x = -1.780176  y = -1.263468  z =  2.216946 angstrom
           Maximum rank =  0   Radius =  0.650 angstrom
                   Q00  =  -0.205617

C          x = -0.565176  y = -0.685468  z = -1.343054 angstrom
           Maximum rank =  0   Radius =  0.650 angstrom
                   Q00  =  -0.076583

C          x = -1.400176  y = -0.847468  z = -0.240054 angstrom
           Maximum rank =  0   Radius =  0.650 angstrom
                   Q00  =  -0.058186

C          x =  0.808824  y = -0.691468  z = -1.174054 angstrom
           Maximum rank =  0   Radius =  0.650 angstrom
                   Q00  =  -0.077244

C          x = -0.874176  y = -1.028468  z =  1.036946 angstrom
           Maximum rank =  0   Radius =  0.650 angstrom
                   Q00  =  -0.098912

C          x =  1.342824  y = -0.870468  z =  0.087946 angstrom
           Maximum rank =  0   Radius =  0.650 angstrom
                   Q00  =  -0.078819

C          x =  0.495824  y = -1.037468  z =  1.185946 angstrom
           Maximum rank =  0   Radius =  0.650 angstrom
                   Q00  =  -0.005956

H          x = -0.990176  y = -0.558468  z = -2.329054 angstrom
           Maximum rank =  0   Radius =  0.325 angstrom
                   Q00  =   0.063760

H          x = -2.466176  y = -0.845468  z = -0.393054 angstrom
           Maximum rank =  0   Radius =  0.325 angstrom
                   Q00  =   0.054691

H          x =  1.461824  y = -0.572468  z = -2.026054 angstrom
           Maximum rank =  0   Radius =  0.325 angstrom
                   Q00  =   0.060407

H          x =  2.413824  y = -0.895468  z =  0.222946 angstrom
           Maximum rank =  0   Radius =  0.325 angstrom
                   Q00  =   0.064431

H          x = -2.613176  y = -0.563468  z =  2.165946 angstrom
           Maximum rank =  0   Radius =  0.325 angstrom
                   Q00  =   0.100570

H          x = -1.235176  y = -1.047468  z =  3.134946 angstrom
           Maximum rank =  0   Radius =  0.325 angstrom
                   Q00  =   0.098113

H          x =  0.926824  y = -1.196468  z =  2.163946 angstrom
           Maximum rank =  0   Radius =  0.325 angstrom
                   Q00  =   0.055622

H          x = -2.165386  y = -2.292599  z =  2.266976 angstrom
           Maximum rank =  0   Radius =  0.325 angstrom
                   Q00  =   0.105938

C          x =  0.361824  y =  2.681532  z = -0.415054 angstrom
           Maximum rank =  0   Radius =  0.650 angstrom
                   Q00  =  -0.233994

C          x =  1.527824  y =  2.987532  z = -1.347054 angstrom
           Maximum rank =  0   Radius =  0.650 angstrom
                   Q00  =  -0.226571

H          x = -0.036176  y =  3.603532  z =  0.006946 angstrom
           Maximum rank =  0   Radius =  0.325 angstrom
                   Q00  =   0.069857

H          x = -0.426176  y =  2.176532  z = -0.974054 angstrom
           Maximum rank =  0   Radius =  0.325 angstrom
                   Q00  =   0.080976

H          x =  0.685824  y =  2.023532  z =  0.388946 angstrom
           Maximum rank =  0   Radius =  0.325 angstrom
                   Q00  =   0.085717

H          x =  1.996824  y =  2.047532  z = -1.646054 angstrom
           Maximum rank =  0   Radius =  0.325 angstrom
                   Q00  =   0.074788

H          x =  2.269694  y =  3.616472  z = -0.833184 angstrom
           Maximum rank =  0   Radius =  0.325 angstrom
                   Q00  =   0.074359

H          x =  1.160994  y =  3.496462  z = -2.250614 angstrom
           Maximum rank =  0   Radius =  0.325 angstrom
                   Q00  =   0.072653

Total multipoles referred to origin at
           x =   0.000000,  y =    0.000000,  z =    0.000000 angstrom
                   Q00  =  -0.000000

Finished at 12:51:38 on 27 Apr 2020 

  DMA results are available in the Python driver through the
	  variable('DMA DISTRIBUTED MULTIPOLES')
  and
	  variable('DMA TOTAL MULTIPOLES')
  commands.


    Psi4 stopped on: Monday, 27 April 2020 12:51PM
    Psi4 wall time for execution: 0:01:58.77

*** Psi4 exiting successfully. Buy a developer a beer!
