
    -----------------------------------------------------------------------
          Psi4: An Open-Source Ab Initio Electronic Structure Package
                               Psi4 1.3.2 release

                         Git: Rev {HEAD} ecbda83 


    R. M. Parrish, L. A. Burns, D. G. A. Smith, A. C. Simmonett,
    A. E. DePrince III, E. G. Hohenstein, U. Bozkaya, A. Yu. Sokolov,
    R. Di Remigio, R. M. Richard, J. F. Gonthier, A. M. James,
    H. R. McAlexander, A. Kumar, M. Saitow, X. Wang, B. P. Pritchard,
    P. Verma, H. F. Schaefer III, K. Patkowski, R. A. King, E. F. Valeev,
    F. A. Evangelista, J. M. Turney, T. D. Crawford, and C. D. Sherrill,
    J. Chem. Theory Comput. 13(7) pp 3185--3197 (2017).
    (doi: 10.1021/acs.jctc.7b00174)


                         Additional Contributions by
    P. Kraus, H. Kruse, M. H. Lechner, M. C. Schieber, R. A. Shaw,
    A. Alenaizan, R. Galvelis, Z. L. Glick, S. Lehtola, and J. P. Misiewicz

    -----------------------------------------------------------------------


    Psi4 started on: Sunday, 26 April 2020 09:22PM

    Process ID: 11370
    Host:       ds3
    PSIDATADIR: /theoryfs2/ds/metcalf/miniconda2/envs/tf2gpu/share/psi4
    Memory:     500.0 MiB
    Threads:    1
    
  ==> Input File <==

--------------------------------------------------------------------------
import numpy as np
set {scf_type pk
basis cc-pvdz
d_convergence 10
gdma_switch   0
gdma_limit    0
gdma_origin   [ 0.0,  0.0,  0.0 ]
}
molecule test {
    units Angstrom
    0 1
    --
    0 1
    C                0.460336648578638    -1.611865366279080    -4.107453296958374
    C                1.363336648578638     0.419134633720920    -1.076453296958374
    C                0.597336648578638    -0.605865366279080    -1.686453296958374
    C                0.994336648578638    -0.676865366279080    -3.065453296958374
    C                1.952336648578638     0.274134633720920    -3.233453296958374
    C                0.307336648578638     0.050134633720920     1.012546703041626
    C                1.227336648578638     0.755134633720920     0.261546703041626
    C               -0.465663351421362    -0.969865366279080     0.440546703041626
    C               -0.330663351421362    -1.304865366279080    -0.904453296958374
    N                2.179336648578638     0.934134633720920    -2.048453296958374
    H                0.199336648578638     0.284134633720920     2.062546703041626
    H                1.826336648578638     1.538134633720920     0.698546703041626
    H               -1.178663351421362    -1.503865366279080     1.056546703041626
    H               -0.929663351421362    -2.086865366279080    -1.346453296958374
    H                2.868336648578638     1.667134633720920    -1.917453296958374
    H                2.449336648578638     0.488134633720920    -4.169453296958374
    H                0.702336648578638    -1.208865366279080    -5.092453296958374
    H               -0.627663351421362    -1.633865366279080    -4.019453296958374
    H                0.843230648578638    -2.640355366279080    -4.032603296958374
    C               -2.072663351421362     0.450134633720920     3.860546703041626
    C               -3.590663351421362     0.406134633720920     3.954546703041626
    O               -1.553663351421362     1.455134633720920     4.708546703041626
    H               -1.668663351421362    -0.510865366279080     4.142546703041626
    H               -1.792663351421362     0.665134633720920     2.829546703041625
    H               -3.869663351421362     0.324134633720920     4.984546703041626
    H               -1.723663351421362     1.180134633720920     5.619546703041626
    H               -3.992336351421363    -0.479975366279080     3.441256703041626
    H               -3.999826351421362     1.356474633720920     3.581126703041626

}
e, wfn = energy('scf', return_wfn=True)
gdma(wfn)
dmavals = variable('DMA DISTRIBUTED MULTIPOLES')
charges = np.array(dmavals)
print(charges)
np.save('SSI-029TRP-302SER-1-dimer.npy', np.array(charges))--------------------------------------------------------------------------

*** tstart() called on ds3
*** at Sun Apr 26 21:22:55 2020

   => Loading Basis Set <=

    Name: CC-PVDZ
    Role: ORBITAL
    Keyword: BASIS
    atoms 1-9, 20-21   entry C          line   138 file /theoryfs2/ds/metcalf/miniconda2/envs/tf2gpu/share/psi4/basis/cc-pvdz.gbs 
    atoms 10           entry N          line   168 file /theoryfs2/ds/metcalf/miniconda2/envs/tf2gpu/share/psi4/basis/cc-pvdz.gbs 
    atoms 11-19, 23-28 entry H          line    22 file /theoryfs2/ds/metcalf/miniconda2/envs/tf2gpu/share/psi4/basis/cc-pvdz.gbs 
    atoms 22           entry O          line   198 file /theoryfs2/ds/metcalf/miniconda2/envs/tf2gpu/share/psi4/basis/cc-pvdz.gbs 


         ---------------------------------------------------------
                                   SCF
               by Justin Turney, Rob Parrish, Andy Simmonett
                          and Daniel G. A. Smith
                              RHF Reference
                        1 Threads,    500 MiB Core
         ---------------------------------------------------------

  ==> Geometry <==

    Molecular point group: c1
    Full point group: C1

    Geometry (in Angstrom), charge = 0, multiplicity = 1:

       Center              X                  Y                   Z               Mass       
    ------------   -----------------  -----------------  -----------------  -----------------
         C            0.460336648579    -1.611865366279    -4.107453296958    12.000000000000
         C            1.363336648579     0.419134633721    -1.076453296958    12.000000000000
         C            0.597336648579    -0.605865366279    -1.686453296958    12.000000000000
         C            0.994336648579    -0.676865366279    -3.065453296958    12.000000000000
         C            1.952336648579     0.274134633721    -3.233453296958    12.000000000000
         C            0.307336648579     0.050134633721     1.012546703042    12.000000000000
         C            1.227336648579     0.755134633721     0.261546703042    12.000000000000
         C           -0.465663351421    -0.969865366279     0.440546703042    12.000000000000
         C           -0.330663351421    -1.304865366279    -0.904453296958    12.000000000000
         N            2.179336648579     0.934134633721    -2.048453296958    14.003074004430
         H            0.199336648579     0.284134633721     2.062546703042     1.007825032230
         H            1.826336648579     1.538134633721     0.698546703042     1.007825032230
         H           -1.178663351421    -1.503865366279     1.056546703042     1.007825032230
         H           -0.929663351421    -2.086865366279    -1.346453296958     1.007825032230
         H            2.868336648579     1.667134633721    -1.917453296958     1.007825032230
         H            2.449336648579     0.488134633721    -4.169453296958     1.007825032230
         H            0.702336648579    -1.208865366279    -5.092453296958     1.007825032230
         H           -0.627663351421    -1.633865366279    -4.019453296958     1.007825032230
         H            0.843230648579    -2.640355366279    -4.032603296958     1.007825032230
         C           -2.072663351421     0.450134633721     3.860546703042    12.000000000000
         C           -3.590663351421     0.406134633721     3.954546703042    12.000000000000
         O           -1.553663351421     1.455134633721     4.708546703042    15.994914619570
         H           -1.668663351421    -0.510865366279     4.142546703042     1.007825032230
         H           -1.792663351421     0.665134633721     2.829546703042     1.007825032230
         H           -3.869663351421     0.324134633721     4.984546703042     1.007825032230
         H           -1.723663351421     1.180134633721     5.619546703042     1.007825032230
         H           -3.992336351421    -0.479975366279     3.441256703042     1.007825032230
         H           -3.999826351421     1.356474633721     3.581126703042     1.007825032230

  Running in c1 symmetry.

  Rotational constants: A =      0.06244  B =      0.00883  C =      0.00796 [cm^-1]
  Rotational constants: A =   1872.02436  B =    264.73960  C =    238.54757 [MHz]
  Nuclear repulsion =  718.710274737609666

  Charge       = 0
  Multiplicity = 1
  Electrons    = 96
  Nalpha       = 48
  Nbeta        = 48

  ==> Algorithm <==

  SCF Algorithm Type is PK.
  DIIS enabled.
  MOM disabled.
  Fractional occupation disabled.
  Guess Type is SAD.
  Energy threshold   = 1.00e-06
  Density threshold  = 1.00e-10
  Integral threshold = 0.00e+00

  ==> Primary Basis <==

  Basis Set: CC-PVDZ
    Blend: CC-PVDZ
    Number of shells: 123
    Number of basis function: 257
    Number of Cartesian functions: 270
    Spherical Harmonics?: true
    Max angular momentum: 2

  ==> Pre-Iterations <==

   -------------------------------------------------------
    Irrep   Nso     Nmo     Nalpha   Nbeta   Ndocc  Nsocc
   -------------------------------------------------------
     A        257     257       0       0       0       0
   -------------------------------------------------------
    Total     257     257      48      48      48       0
   -------------------------------------------------------

  ==> Integral Setup <==

  Using integral reordering PK algorithm.
  Sizing the integral batches needed.
  Building batch lookup table.
   Calculation information:
      Number of atoms:                  28
      Number of AO shells:             123
      Number of primitives:            361
      Number of atomic orbitals:       270
      Number of basis functions:       257

      Integral cutoff                 1.00e-12
      Number of threads:                 1

	Batch   1 pq = [       0,    9405] index = [             0,44231715] size =     44231715
	Batch   2 pq = [    9405,   13301] index = [      44231715,88464951] size =     44233236
	Batch   3 pq = [   13301,   16290] index = [      88464951,132690195] size =     44225244
	Batch   4 pq = [   16290,   18810] index = [     132690195,176917455] size =     44227260
	Batch   5 pq = [   18810,   21030] index = [     176917455,221140965] size =     44223510
	Batch   6 pq = [   21030,   23037] index = [     221140965,265363203] size =     44222238
	Batch   7 pq = [   23037,   24883] index = [     265363203,309594286] size =     44231083
	Batch   8 pq = [   24883,   26601] index = [     309594286,353819901] size =     44225615
	Batch   9 pq = [   26601,   28214] index = [     353819901,398029005] size =     44209104
	Batch  10 pq = [   28214,   29740] index = [     398029005,442248670] size =     44219665
	Batch  11 pq = [   29740,   31191] index = [     442248670,486454836] size =     44206166
	Batch  12 pq = [   31191,   32578] index = [     486454836,530679331] size =     44224495
	Batch  13 pq = [   32578,   33153] index = [     530679331,549577281] size =     18897950
  Task number: 50
  Buffer size: 11059200
  Buffer per thread: 2
  We computed 21213273 shell quartets total.
  Whereas there are 29081751 unique shell quartets.

  ==> DiskJK: Disk-Based J/K Matrices <==

    J tasked:                  Yes
    K tasked:                  Yes
    wK tasked:                  No
    Memory [MiB]:              375
    Schwarz Cutoff:          1E-12

    OpenMP threads:              1

  Minimum eigenvalue in the overlap matrix is 2.3761942985E-04.
  Using Symmetric Orthogonalization.

  SCF Guess: Superposition of Atomic Densities via on-the-fly atomic UHF.

  ==> Iterations <==

                        Total Energy        Delta E     RMS |[F,P]|

   @RHF iter SAD:  -553.82917692804608   -5.53829e+02   0.00000e+00 
   @RHF iter   1:  -554.32387893290831   -4.94702e-01   2.64469e-03 DIIS
   @RHF iter   2:  -554.57379231101208   -2.49913e-01   1.22069e-03 DIIS
   @RHF iter   3:  -554.62030449950873   -4.65122e-02   2.99108e-04 DIIS
   @RHF iter   4:  -554.62433697614983   -4.03248e-03   1.25499e-04 DIIS
   @RHF iter   5:  -554.62492816575991   -5.91190e-04   2.26299e-05 DIIS
   @RHF iter   6:  -554.62496158783927   -3.34221e-05   1.03483e-05 DIIS
   @RHF iter   7:  -554.62496912060340   -7.53276e-06   3.76505e-06 DIIS
   @RHF iter   8:  -554.62497102034922   -1.89975e-06   1.52573e-06 DIIS
   @RHF iter   9:  -554.62497142229654   -4.01947e-07   6.67774e-07 DIIS
   @RHF iter  10:  -554.62497149191256   -6.96160e-08   3.16101e-07 DIIS
   @RHF iter  11:  -554.62497151110483   -1.91923e-08   1.14533e-07 DIIS
   @RHF iter  12:  -554.62497151366870   -2.56387e-09   3.83907e-08 DIIS
   @RHF iter  13:  -554.62497151384764   -1.78943e-10   1.28509e-08 DIIS
   @RHF iter  14:  -554.62497151386390   -1.62572e-11   4.40185e-09 DIIS
   @RHF iter  15:  -554.62497151386538   -1.47793e-12   2.00029e-09 DIIS
   @RHF iter  16:  -554.62497151386719   -1.81899e-12   9.27554e-10 DIIS
   @RHF iter  17:  -554.62497151386992   -2.72848e-12   4.15496e-10 DIIS
   @RHF iter  18:  -554.62497151386367    6.25278e-12   1.83405e-10 DIIS
   @RHF iter  19:  -554.62497151386742   -3.75167e-12   5.60775e-11 DIIS
  Energy and wave function converged.


  ==> Post-Iterations <==

    Orbital Energies [Eh]
    ---------------------

    Doubly Occupied:                                                      

       1A    -20.547168     2A    -15.600000     3A    -11.269877  
       4A    -11.263084     5A    -11.262033     6A    -11.230246  
       7A    -11.227704     8A    -11.226897     9A    -11.226309  
      10A    -11.221243    11A    -11.219127    12A    -11.217712  
      13A    -11.216688    14A     -1.352403    15A     -1.294418  
      16A     -1.128080    17A     -1.072935    18A     -1.008120  
      19A     -0.996701    20A     -0.987050    21A     -0.930814  
      22A     -0.843081    23A     -0.837753    24A     -0.803115  
      25A     -0.752483    26A     -0.719142    27A     -0.684312  
      28A     -0.662310    29A     -0.642888    30A     -0.619173  
      31A     -0.602180    32A     -0.597811    33A     -0.591204  
      34A     -0.589378    35A     -0.566682    36A     -0.551866  
      37A     -0.541249    38A     -0.537224    39A     -0.527876  
      40A     -0.517065    41A     -0.494165    42A     -0.475931  
      43A     -0.470009    44A     -0.460284    45A     -0.431249  
      46A     -0.372104    47A     -0.294557    48A     -0.274883  

    Virtual:                                                              

      49A      0.125563    50A      0.170077    51A      0.174991  
      52A      0.182685    53A      0.190219    54A      0.203043  
      55A      0.214861    56A      0.224577    57A      0.228067  
      58A      0.236637    59A      0.256468    60A      0.258066  
      61A      0.276358    62A      0.278674    63A      0.288077  
      64A      0.295778    65A      0.300707    66A      0.312869  
      67A      0.375137    68A      0.384563    69A      0.395324  
      70A      0.403060    71A      0.407033    72A      0.434421  
      73A      0.452160    74A      0.475456    75A      0.485480  
      76A      0.498720    77A      0.512591    78A      0.595384  
      79A      0.603396    80A      0.612498    81A      0.633802  
      82A      0.636804    83A      0.662128    84A      0.666246  
      85A      0.683647    86A      0.695545    87A      0.713669  
      88A      0.719527    89A      0.726923    90A      0.729551  
      91A      0.737058    92A      0.740150    93A      0.744403  
      94A      0.748563    95A      0.762450    96A      0.766634  
      97A      0.779796    98A      0.792062    99A      0.797056  
     100A      0.815605   101A      0.824586   102A      0.846896  
     103A      0.853483   104A      0.873146   105A      0.874721  
     106A      0.877812   107A      0.883518   108A      0.895373  
     109A      0.897268   110A      0.905703   111A      0.910782  
     112A      0.917379   113A      0.931989   114A      0.943488  
     115A      0.948168   116A      0.954170   117A      0.962342  
     118A      0.987028   119A      0.991077   120A      1.004854  
     121A      1.016528   122A      1.062143   123A      1.075107  
     124A      1.096549   125A      1.123915   126A      1.131532  
     127A      1.136159   128A      1.145955   129A      1.151303  
     130A      1.165531   131A      1.183661   132A      1.209053  
     133A      1.214645   134A      1.232457   135A      1.236402  
     136A      1.245021   137A      1.252532   138A      1.272916  
     139A      1.280918   140A      1.292010   141A      1.307494  
     142A      1.329386   143A      1.339183   144A      1.346452  
     145A      1.363406   146A      1.373568   147A      1.380329  
     148A      1.408138   149A      1.448314   150A      1.495094  
     151A      1.514995   152A      1.541497   153A      1.554024  
     154A      1.575405   155A      1.596631   156A      1.606449  
     157A      1.632906   158A      1.634892   159A      1.646855  
     160A      1.650159   161A      1.682100   162A      1.686034  
     163A      1.698356   164A      1.740874   165A      1.750487  
     166A      1.763154   167A      1.777719   168A      1.788513  
     169A      1.812236   170A      1.823124   171A      1.832007  
     172A      1.857432   173A      1.885720   174A      1.887969  
     175A      1.888710   176A      1.902861   177A      1.906876  
     178A      1.909951   179A      1.918720   180A      1.933398  
     181A      1.945739   182A      1.949746   183A      1.961673  
     184A      1.972328   185A      1.983474   186A      1.985727  
     187A      2.000303   188A      2.008198   189A      2.013641  
     190A      2.024546   191A      2.049577   192A      2.073060  
     193A      2.077341   194A      2.085685   195A      2.092065  
     196A      2.100852   197A      2.105503   198A      2.115699  
     199A      2.120607   200A      2.147652   201A      2.158584  
     202A      2.179488   203A      2.192148   204A      2.201145  
     205A      2.229525   206A      2.247719   207A      2.274313  
     208A      2.290235   209A      2.299724   210A      2.308661  
     211A      2.325009   212A      2.335634   213A      2.351251  
     214A      2.375626   215A      2.398066   216A      2.418777  
     217A      2.435003   218A      2.454682   219A      2.465455  
     220A      2.528411   221A      2.538703   222A      2.550791  
     223A      2.578650   224A      2.588640   225A      2.607697  
     226A      2.638360   227A      2.664427   228A      2.683877  
     229A      2.700560   230A      2.761746   231A      2.769953  
     232A      2.779795   233A      2.787263   234A      2.798201  
     235A      2.807642   236A      2.829537   237A      2.837787  
     238A      2.873757   239A      2.878953   240A      2.889221  
     241A      2.914866   242A      2.959715   243A      2.975095  
     244A      3.035225   245A      3.055036   246A      3.079396  
     247A      3.119894   248A      3.209299   249A      3.311160  
     250A      3.330269   251A      3.383760   252A      3.406083  
     253A      3.483257   254A      3.645645   255A      3.744848  
     256A      3.958114   257A      4.102535  

    Final Occupation by Irrep:
              A 
    DOCC [    48 ]

  @RHF Final Energy:  -554.62497151386742

   => Energetics <=

    Nuclear Repulsion Energy =            718.7102747376096659
    One-Electron Energy =               -2178.7533281387345596
    Two-Electron Energy =                 905.4180818872573582
    Total Energy =                       -554.6249715138674219

Computation Completed


Properties will be evaluated at   0.000000,   0.000000,   0.000000 [a0]

Properties computed using the SCF density matrix

  Nuclear Dipole Moment: [e a0]
     X:   -10.2265      Y:    -2.3968      Z:     7.3768

  Electronic Dipole Moment: [e a0]
     X:    10.5161      Y:     2.3216      Z:    -7.5303

  Dipole Moment: [e a0]
     X:     0.2896      Y:    -0.0752      Z:    -0.1536     Total:     0.3363

  Dipole Moment: [D]
     X:     0.7361      Y:    -0.1912      Z:    -0.3903     Total:     0.8548


*** tstop() called on ds3 at Sun Apr 26 21:31:47 2020
Module time:
	user time   =     188.96 seconds =       3.15 minutes
	system time =      90.42 seconds =       1.51 minutes
	total time  =        532 seconds =       8.87 minutes
Total time:
	user time   =     188.96 seconds =       3.15 minutes
	system time =      90.42 seconds =       1.51 minutes
	total time  =        532 seconds =       8.87 minutes
                                     G D M A

                                 by Anthony Stone

                           version 2.2.06, 22 June 2011

               Distributed Multipoles from Gaussian wavefunctions


Starting at 21:31:48 on 26 Apr 2020 


Using SCF density matrix from file ./SSI/SSI-029TRP-302SER-1-dimer.test.11370.fchk


                         Distributed Multipole Analysis

Standard DMA

Positions and radii in angstrom
Multipole moments in atomic units, ea_0^k for rank k

C          x =  0.460337  y = -1.611865  z = -4.107453 angstrom
           Maximum rank =  0   Radius =  0.650 angstrom
                   Q00  =  -0.207284

C          x =  1.363337  y =  0.419135  z = -1.076453 angstrom
           Maximum rank =  0   Radius =  0.650 angstrom
                   Q00  =   0.299955

C          x =  0.597337  y = -0.605865  z = -1.686453 angstrom
           Maximum rank =  0   Radius =  0.650 angstrom
                   Q00  =  -0.052400

C          x =  0.994337  y = -0.676865  z = -3.065453 angstrom
           Maximum rank =  0   Radius =  0.650 angstrom
                   Q00  =  -0.124985

C          x =  1.952337  y =  0.274135  z = -3.233453 angstrom
           Maximum rank =  0   Radius =  0.650 angstrom
                   Q00  =   0.074055

C          x =  0.307337  y =  0.050135  z =  1.012547 angstrom
           Maximum rank =  0   Radius =  0.650 angstrom
                   Q00  =  -0.070033

C          x =  1.227337  y =  0.755135  z =  0.261547 angstrom
           Maximum rank =  0   Radius =  0.650 angstrom
                   Q00  =  -0.115885

C          x = -0.465663  y = -0.969865  z =  0.440547 angstrom
           Maximum rank =  0   Radius =  0.650 angstrom
                   Q00  =  -0.093499

C          x = -0.330663  y = -1.304865  z = -0.904453 angstrom
           Maximum rank =  0   Radius =  0.650 angstrom
                   Q00  =  -0.095367

N          x =  2.179337  y =  0.934135  z = -2.048453 angstrom
           Maximum rank =  0   Radius =  0.650 angstrom
                   Q00  =  -0.497933

H          x =  0.199337  y =  0.284135  z =  2.062547 angstrom
           Maximum rank =  0   Radius =  0.325 angstrom
                   Q00  =   0.066405

H          x =  1.826337  y =  1.538135  z =  0.698547 angstrom
           Maximum rank =  0   Radius =  0.325 angstrom
                   Q00  =   0.074468

H          x = -1.178663  y = -1.503865  z =  1.056547 angstrom
           Maximum rank =  0   Radius =  0.325 angstrom
                   Q00  =   0.055282

H          x = -0.929663  y = -2.086865  z = -1.346453 angstrom
           Maximum rank =  0   Radius =  0.325 angstrom
                   Q00  =   0.069793

H          x =  2.868337  y =  1.667135  z = -1.917453 angstrom
           Maximum rank =  0   Radius =  0.325 angstrom
                   Q00  =   0.217677

H          x =  2.449337  y =  0.488135  z = -4.169453 angstrom
           Maximum rank =  0   Radius =  0.325 angstrom
                   Q00  =   0.099994

H          x =  0.702337  y = -1.208865  z = -5.092453 angstrom
           Maximum rank =  0   Radius =  0.325 angstrom
                   Q00  =   0.102969

H          x = -0.627663  y = -1.633865  z = -4.019453 angstrom
           Maximum rank =  0   Radius =  0.325 angstrom
                   Q00  =   0.098780

H          x =  0.843231  y = -2.640355  z = -4.032603 angstrom
           Maximum rank =  0   Radius =  0.325 angstrom
                   Q00  =   0.098795

C          x = -2.072663  y =  0.450135  z =  3.860547 angstrom
           Maximum rank =  0   Radius =  0.650 angstrom
                   Q00  =   0.089956

C          x = -3.590663  y =  0.406135  z =  3.954547 angstrom
           Maximum rank =  0   Radius =  0.650 angstrom
                   Q00  =  -0.238409

O          x = -1.553663  y =  1.455135  z =  4.708547 angstrom
           Maximum rank =  0   Radius =  0.650 angstrom
                   Q00  =  -0.598980

H          x = -1.668663  y = -0.510865  z =  4.142547 angstrom
           Maximum rank =  0   Radius =  0.325 angstrom
                   Q00  =   0.031003

H          x = -1.792663  y =  0.665135  z =  2.829547 angstrom
           Maximum rank =  0   Radius =  0.325 angstrom
                   Q00  =   0.088361

H          x = -3.869663  y =  0.324135  z =  4.984547 angstrom
           Maximum rank =  0   Radius =  0.325 angstrom
                   Q00  =   0.074137

H          x = -1.723663  y =  1.180135  z =  5.619547 angstrom
           Maximum rank =  0   Radius =  0.325 angstrom
                   Q00  =   0.379002

H          x = -3.992336  y = -0.479975  z =  3.441257 angstrom
           Maximum rank =  0   Radius =  0.325 angstrom
                   Q00  =   0.081833

H          x = -3.999826  y =  1.356475  z =  3.581127 angstrom
           Maximum rank =  0   Radius =  0.325 angstrom
                   Q00  =   0.092311

Total multipoles referred to origin at
           x =   0.000000,  y =    0.000000,  z =    0.000000 angstrom
                   Q00  =  -0.000000

Finished at 21:31:48 on 26 Apr 2020 

  DMA results are available in the Python driver through the
	  variable('DMA DISTRIBUTED MULTIPOLES')
  and
	  variable('DMA TOTAL MULTIPOLES')
  commands.


    Psi4 stopped on: Sunday, 26 April 2020 09:31PM
    Psi4 wall time for execution: 0:08:52.35

*** Psi4 exiting successfully. Buy a developer a beer!
