
    -----------------------------------------------------------------------
          Psi4: An Open-Source Ab Initio Electronic Structure Package
                               Psi4 1.3.2 release

                         Git: Rev {HEAD} ecbda83 


    R. M. Parrish, L. A. Burns, D. G. A. Smith, A. C. Simmonett,
    A. E. DePrince III, E. G. Hohenstein, U. Bozkaya, A. Yu. Sokolov,
    R. Di Remigio, R. M. Richard, J. F. Gonthier, A. M. James,
    H. R. McAlexander, A. Kumar, M. Saitow, X. Wang, B. P. Pritchard,
    P. Verma, H. F. Schaefer III, K. Patkowski, R. A. King, E. F. Valeev,
    F. A. Evangelista, J. M. Turney, T. D. Crawford, and C. D. Sherrill,
    J. Chem. Theory Comput. 13(7) pp 3185--3197 (2017).
    (doi: 10.1021/acs.jctc.7b00174)


                         Additional Contributions by
    P. Kraus, H. Kruse, M. H. Lechner, M. C. Schieber, R. A. Shaw,
    A. Alenaizan, R. Galvelis, Z. L. Glick, S. Lehtola, and J. P. Misiewicz

    -----------------------------------------------------------------------


    Psi4 started on: Monday, 27 April 2020 07:03PM

    Process ID: 2875
    Host:       ds3
    PSIDATADIR: /theoryfs2/ds/metcalf/miniconda2/envs/tf2gpu/share/psi4
    Memory:     500.0 MiB
    Threads:    1
    
  ==> Input File <==

--------------------------------------------------------------------------
import numpy as np
set {scf_type pk
basis cc-pvdz
d_convergence 10
gdma_switch   0
gdma_limit    0
gdma_origin   [ 0.0,  0.0,  0.0 ]
}
molecule test {
    units Angstrom
    0 1
    --
    0 1
    C                1.300812923481768    -3.112882049429196    -0.704934671348059
    C                2.495812923481768    -2.159882049429196    -0.558934671348059
    H                1.625812923481768    -4.146882049429196    -0.643934671348059
    H                0.579812923481768    -2.940882049429196     0.085065328651941
    H                0.809812923481768    -2.949882049429196    -1.664934671348059
    H                2.091812923481768    -1.145882049429196    -0.560934671348059
    H                3.177464923481768    -2.255932049429196    -1.416912671348059
    H                3.031167923481768    -2.317042049429196     0.389060328651941
    C               -1.144187076518232    -1.009882049429196     1.678065328651941
    C               -0.726187076518232    -0.051882049429196    -0.601934671348059
    C               -0.788187076518232     0.134117950570804     0.774065328651941
    C               -0.391187076518232     1.008117950570804    -1.435934671348059
    C               -0.649187076518232     1.415117950570804     1.292065328651941
    C               -0.212187076518232     2.277117950570804    -0.904934671348059
    C               -0.345187076518232     2.482117950570804     0.459065328651941
    H               -0.897187076518232    -1.030882049429196    -1.026934671348059
    H               -0.314187076518232     0.853117950570804    -2.503934671348059
    H               -0.456187076518232    -1.021882049429196     2.523065328651941
    H               -1.029187076518232    -1.946882049429197     1.138065328651941
    H               -0.746187076518232     1.584117950570804     2.356065328651941
    H               -0.004187076518232     3.108117950570804    -1.561934671348059
    H               -0.220187076518232     3.474117950570804     0.871065328651941
    H               -2.175200076518232    -0.956562049429196     2.057760328651941

}
e, wfn = energy('scf', return_wfn=True)
gdma(wfn)
dmavals = variable('DMA DISTRIBUTED MULTIPOLES')
charges = np.array(dmavals)
print(charges)
np.save('SSI-041ILE-107PHE-1-dimer.npy', np.array(charges))--------------------------------------------------------------------------

*** tstart() called on ds3
*** at Mon Apr 27 19:03:52 2020

   => Loading Basis Set <=

    Name: CC-PVDZ
    Role: ORBITAL
    Keyword: BASIS
    atoms 1-2, 9-15  entry C          line   138 file /theoryfs2/ds/metcalf/miniconda2/envs/tf2gpu/share/psi4/basis/cc-pvdz.gbs 
    atoms 3-8, 16-23 entry H          line    22 file /theoryfs2/ds/metcalf/miniconda2/envs/tf2gpu/share/psi4/basis/cc-pvdz.gbs 


         ---------------------------------------------------------
                                   SCF
               by Justin Turney, Rob Parrish, Andy Simmonett
                          and Daniel G. A. Smith
                              RHF Reference
                        1 Threads,    500 MiB Core
         ---------------------------------------------------------

  ==> Geometry <==

    Molecular point group: c1
    Full point group: C1

    Geometry (in Angstrom), charge = 0, multiplicity = 1:

       Center              X                  Y                   Z               Mass       
    ------------   -----------------  -----------------  -----------------  -----------------
         C            1.300812923482    -3.112882049429    -0.704934671348    12.000000000000
         C            2.495812923482    -2.159882049429    -0.558934671348    12.000000000000
         H            1.625812923482    -4.146882049429    -0.643934671348     1.007825032230
         H            0.579812923482    -2.940882049429     0.085065328652     1.007825032230
         H            0.809812923482    -2.949882049429    -1.664934671348     1.007825032230
         H            2.091812923482    -1.145882049429    -0.560934671348     1.007825032230
         H            3.177464923482    -2.255932049429    -1.416912671348     1.007825032230
         H            3.031167923482    -2.317042049429     0.389060328652     1.007825032230
         C           -1.144187076518    -1.009882049429     1.678065328652    12.000000000000
         C           -0.726187076518    -0.051882049429    -0.601934671348    12.000000000000
         C           -0.788187076518     0.134117950571     0.774065328652    12.000000000000
         C           -0.391187076518     1.008117950571    -1.435934671348    12.000000000000
         C           -0.649187076518     1.415117950571     1.292065328652    12.000000000000
         C           -0.212187076518     2.277117950571    -0.904934671348    12.000000000000
         C           -0.345187076518     2.482117950571     0.459065328652    12.000000000000
         H           -0.897187076518    -1.030882049429    -1.026934671348     1.007825032230
         H           -0.314187076518     0.853117950571    -2.503934671348     1.007825032230
         H           -0.456187076518    -1.021882049429     2.523065328652     1.007825032230
         H           -1.029187076518    -1.946882049429     1.138065328652     1.007825032230
         H           -0.746187076518     1.584117950571     2.356065328652     1.007825032230
         H           -0.004187076518     3.108117950571    -1.561934671348     1.007825032230
         H           -0.220187076518     3.474117950571     0.871065328652     1.007825032230
         H           -2.175200076518    -0.956562049429     2.057760328652     1.007825032230

  Running in c1 symmetry.

  Rotational constants: A =      0.07135  B =      0.02939  C =      0.02440 [cm^-1]
  Rotational constants: A =   2139.14075  B =    881.19270  C =    731.34962 [MHz]
  Nuclear repulsion =  415.912292435774134

  Charge       = 0
  Multiplicity = 1
  Electrons    = 68
  Nalpha       = 34
  Nbeta        = 34

  ==> Algorithm <==

  SCF Algorithm Type is PK.
  DIIS enabled.
  MOM disabled.
  Fractional occupation disabled.
  Guess Type is SAD.
  Energy threshold   = 1.00e-06
  Density threshold  = 1.00e-10
  Integral threshold = 0.00e+00

  ==> Primary Basis <==

  Basis Set: CC-PVDZ
    Blend: CC-PVDZ
    Number of shells: 96
    Number of basis function: 196
    Number of Cartesian functions: 205
    Spherical Harmonics?: true
    Max angular momentum: 2

  ==> Pre-Iterations <==

   -------------------------------------------------------
    Irrep   Nso     Nmo     Nalpha   Nbeta   Ndocc  Nsocc
   -------------------------------------------------------
     A        196     196       0       0       0       0
   -------------------------------------------------------
    Total     196     196      34      34      34       0
   -------------------------------------------------------

  ==> Integral Setup <==

  Using integral reordering PK algorithm.
  Sizing the integral batches needed.
  Building batch lookup table.
   Calculation information:
      Number of atoms:                  23
      Number of AO shells:              96
      Number of primitives:            268
      Number of atomic orbitals:       205
      Number of basis functions:       196

      Integral cutoff                 1.00e-12
      Number of threads:                 1

	Batch   1 pq = [       0,    9405] index = [             0,44231715] size =     44231715
	Batch   2 pq = [    9405,   13301] index = [      44231715,88464951] size =     44233236
	Batch   3 pq = [   13301,   16290] index = [      88464951,132690195] size =     44225244
	Batch   4 pq = [   16290,   18810] index = [     132690195,176917455] size =     44227260
	Batch   5 pq = [   18810,   19306] index = [     176917455,186370471] size =      9453016
  Task number: 17
  Buffer size: 11059200
  Buffer per thread: 2
  We computed 10187836 shell quartets total.
  Whereas there are 10841496 unique shell quartets.

  ==> DiskJK: Disk-Based J/K Matrices <==

    J tasked:                  Yes
    K tasked:                  Yes
    wK tasked:                  No
    Memory [MiB]:              375
    Schwarz Cutoff:          1E-12

    OpenMP threads:              1

  Minimum eigenvalue in the overlap matrix is 3.1575867004E-04.
  Using Symmetric Orthogonalization.

  SCF Guess: Superposition of Atomic Densities via on-the-fly atomic UHF.

  ==> Iterations <==

                        Total Energy        Delta E     RMS |[F,P]|

   @RHF iter SAD:  -347.94264180723764   -3.47943e+02   0.00000e+00 
   @RHF iter   1:  -348.76503749778448   -8.22396e-01   2.90373e-03 DIIS
   @RHF iter   2:  -348.95824583486797   -1.93208e-01   1.20775e-03 DIIS
   @RHF iter   3:  -348.98875916778951   -3.05133e-02   2.61148e-04 DIIS
   @RHF iter   4:  -348.99124503295326   -2.48587e-03   5.75523e-05 DIIS
   @RHF iter   5:  -348.99132907844569   -8.40455e-05   1.93727e-05 DIIS
   @RHF iter   6:  -348.99133822815480   -9.14971e-06   5.06286e-06 DIIS
   @RHF iter   7:  -348.99133897780905   -7.49654e-07   1.28619e-06 DIIS
   @RHF iter   8:  -348.99133904086659   -6.30575e-08   3.66989e-07 DIIS
   @RHF iter   9:  -348.99133905141463   -1.05480e-08   1.69414e-07 DIIS
   @RHF iter  10:  -348.99133905403392   -2.61929e-09   7.82796e-08 DIIS
   @RHF iter  11:  -348.99133905485621   -8.22297e-10   2.67939e-08 DIIS
   @RHF iter  12:  -348.99133905493358   -7.73639e-11   1.08234e-08 DIIS
   @RHF iter  13:  -348.99133905494239   -8.81073e-12   4.18608e-09 DIIS
   @RHF iter  14:  -348.99133905494477   -2.38742e-12   1.13859e-09 DIIS
   @RHF iter  15:  -348.99133905494409    6.82121e-13   5.27863e-10 DIIS
   @RHF iter  16:  -348.99133905494460   -5.11591e-13   2.17175e-10 DIIS
   @RHF iter  17:  -348.99133905494313    1.47793e-12   8.38821e-11 DIIS
  Energy and wave function converged.


  ==> Post-Iterations <==

    Orbital Energies [Eh]
    ---------------------

    Doubly Occupied:                                                      

       1A    -11.238955     2A    -11.234448     3A    -11.234271  
       4A    -11.229786     5A    -11.229581     6A    -11.229317  
       7A    -11.228063     8A    -11.215355     9A    -11.214745  
      10A     -1.155928    11A     -1.046374    12A     -1.015196  
      13A     -1.012309    14A     -0.932138    15A     -0.836074  
      16A     -0.825725    17A     -0.796292    18A     -0.692393  
      19A     -0.634002    20A     -0.629581    21A     -0.596815  
      22A     -0.595538    23A     -0.582644    24A     -0.575093  
      25A     -0.563009    26A     -0.536969    27A     -0.498269  
      28A     -0.490924    29A     -0.486779    30A     -0.484492  
      31A     -0.481905    32A     -0.476084    33A     -0.333079  
      34A     -0.322935  

    Virtual:                                                              

      35A      0.135464    36A      0.141928    37A      0.175379  
      38A      0.197455    39A      0.205227    40A      0.220401  
      41A      0.236635    42A      0.241955    43A      0.259744  
      44A      0.266145    45A      0.268424    46A      0.277624  
      47A      0.281408    48A      0.293368    49A      0.301503  
      50A      0.363027    51A      0.369344    52A      0.387696  
      53A      0.397512    54A      0.456098    55A      0.464819  
      56A      0.478242    57A      0.511047    58A      0.562541  
      59A      0.580526    60A      0.593902    61A      0.605373  
      62A      0.610430    63A      0.656407    64A      0.681674  
      65A      0.688404    66A      0.695608    67A      0.697254  
      68A      0.717516    69A      0.730223    70A      0.742991  
      71A      0.749034    72A      0.751248    73A      0.761714  
      74A      0.776682    75A      0.788992    76A      0.804673  
      77A      0.843060    78A      0.850859    79A      0.854939  
      80A      0.862449    81A      0.871020    82A      0.880665  
      83A      0.891496    84A      0.893887    85A      0.902415  
      86A      0.912030    87A      0.917220    88A      0.925619  
      89A      0.941208    90A      0.977224    91A      0.987113  
      92A      0.988558    93A      1.006081    94A      1.023791  
      95A      1.030237    96A      1.054331    97A      1.116707  
      98A      1.129467    99A      1.136197   100A      1.145710  
     101A      1.156424   102A      1.172425   103A      1.197198  
     104A      1.231011   105A      1.248257   106A      1.251017  
     107A      1.256814   108A      1.272473   109A      1.301399  
     110A      1.313965   111A      1.330041   112A      1.346777  
     113A      1.414722   114A      1.468964   115A      1.483767  
     116A      1.504610   117A      1.524279   118A      1.568534  
     119A      1.598610   120A      1.618061   121A      1.676722  
     122A      1.680949   123A      1.692121   124A      1.717725  
     125A      1.742982   126A      1.750198   127A      1.765787  
     128A      1.795706   129A      1.822632   130A      1.858096  
     131A      1.864447   132A      1.885169   133A      1.887353  
     134A      1.890631   135A      1.907720   136A      1.918449  
     137A      1.918666   138A      1.927682   139A      1.941033  
     140A      1.949531   141A      1.953514   142A      1.955900  
     143A      1.956420   144A      1.968441   145A      1.976003  
     146A      1.989998   147A      2.001071   148A      2.020791  
     149A      2.048355   150A      2.059740   151A      2.087589  
     152A      2.107192   153A      2.125527   154A      2.130459  
     155A      2.132955   156A      2.164291   157A      2.168422  
     158A      2.176760   159A      2.194804   160A      2.251462  
     161A      2.283320   162A      2.288406   163A      2.293666  
     164A      2.302967   165A      2.321013   166A      2.323323  
     167A      2.368914   168A      2.448788   169A      2.460936  
     170A      2.469159   171A      2.482374   172A      2.515303  
     173A      2.547714   174A      2.563588   175A      2.584085  
     176A      2.638924   177A      2.736448   178A      2.756148  
     179A      2.771549   180A      2.785760   181A      2.796717  
     182A      2.807154   183A      2.815163   184A      2.850643  
     185A      2.863691   186A      2.874432   187A      2.888737  
     188A      2.959879   189A      2.972830   190A      2.991397  
     191A      3.015934   192A      3.034927   193A      3.158339  
     194A      3.210861   195A      3.309925   196A      3.979396  

    Final Occupation by Irrep:
              A 
    DOCC [    34 ]

  @RHF Final Energy:  -348.99133905494313

   => Energetics <=

    Nuclear Repulsion Energy =            415.9122924357741340
    One-Electron Energy =               -1294.4971314019417150
    Two-Electron Energy =                 529.5934999112243986
    Total Energy =                       -348.9913390549431824

Computation Completed


Properties will be evaluated at   0.000000,   0.000000,   0.000000 [a0]

Properties computed using the SCF density matrix

  Nuclear Dipole Moment: [e a0]
     X:     5.1311      Y:   -10.9621      Z:     0.0381

  Electronic Dipole Moment: [e a0]
     X:    -5.2088      Y:    10.9362      Z:     0.0459

  Dipole Moment: [e a0]
     X:    -0.0777      Y:    -0.0258      Z:     0.0840     Total:     0.1173

  Dipole Moment: [D]
     X:    -0.1975      Y:    -0.0656      Z:     0.2134     Total:     0.2981


*** tstop() called on ds3 at Mon Apr 27 19:05:35 2020
Module time:
	user time   =      68.94 seconds =       1.15 minutes
	system time =      26.74 seconds =       0.45 minutes
	total time  =        103 seconds =       1.72 minutes
Total time:
	user time   =      68.94 seconds =       1.15 minutes
	system time =      26.74 seconds =       0.45 minutes
	total time  =        103 seconds =       1.72 minutes
                                     G D M A

                                 by Anthony Stone

                           version 2.2.06, 22 June 2011

               Distributed Multipoles from Gaussian wavefunctions


Starting at 19:5:35 on 27 Apr 2020  


Using SCF density matrix from file ./SSI/SSI-041ILE-107PHE-1-dimer.test.2875.fchk


                         Distributed Multipole Analysis

Standard DMA

Positions and radii in angstrom
Multipole moments in atomic units, ea_0^k for rank k

C          x =  1.300813  y = -3.112882  z = -0.704935 angstrom
           Maximum rank =  0   Radius =  0.650 angstrom
                   Q00  =  -0.244283

C          x =  2.495813  y = -2.159882  z = -0.558935 angstrom
           Maximum rank =  0   Radius =  0.650 angstrom
                   Q00  =  -0.238934

H          x =  1.625813  y = -4.146882  z = -0.643935 angstrom
           Maximum rank =  0   Radius =  0.325 angstrom
                   Q00  =   0.078443

H          x =  0.579813  y = -2.940882  z =  0.085065 angstrom
           Maximum rank =  0   Radius =  0.325 angstrom
                   Q00  =   0.077678

H          x =  0.809813  y = -2.949882  z = -1.664935 angstrom
           Maximum rank =  0   Radius =  0.325 angstrom
                   Q00  =   0.076507

H          x =  2.091813  y = -1.145882  z = -0.560935 angstrom
           Maximum rank =  0   Radius =  0.325 angstrom
                   Q00  =   0.090354

H          x =  3.177465  y = -2.255932  z = -1.416913 angstrom
           Maximum rank =  0   Radius =  0.325 angstrom
                   Q00  =   0.078667

H          x =  3.031168  y = -2.317042  z =  0.389060 angstrom
           Maximum rank =  0   Radius =  0.325 angstrom
                   Q00  =   0.079498

C          x = -1.144187  y = -1.009882  z =  1.678065 angstrom
           Maximum rank =  0   Radius =  0.650 angstrom
                   Q00  =  -0.205797

C          x = -0.726187  y = -0.051882  z = -0.601935 angstrom
           Maximum rank =  0   Radius =  0.650 angstrom
                   Q00  =  -0.091708

C          x = -0.788187  y =  0.134118  z =  0.774065 angstrom
           Maximum rank =  0   Radius =  0.650 angstrom
                   Q00  =  -0.095103

C          x = -0.391187  y =  1.008118  z = -1.435935 angstrom
           Maximum rank =  0   Radius =  0.650 angstrom
                   Q00  =  -0.051747

C          x = -0.649187  y =  1.415118  z =  1.292065 angstrom
           Maximum rank =  0   Radius =  0.650 angstrom
                   Q00  =   0.004820

C          x = -0.212187  y =  2.277118  z = -0.904935 angstrom
           Maximum rank =  0   Radius =  0.650 angstrom
                   Q00  =  -0.087859

C          x = -0.345187  y =  2.482118  z =  0.459065 angstrom
           Maximum rank =  0   Radius =  0.650 angstrom
                   Q00  =  -0.075449

H          x = -0.897187  y = -1.030882  z = -1.026935 angstrom
           Maximum rank =  0   Radius =  0.325 angstrom
                   Q00  =   0.061369

H          x = -0.314187  y =  0.853118  z = -2.503935 angstrom
           Maximum rank =  0   Radius =  0.325 angstrom
                   Q00  =   0.064174

H          x = -0.456187  y = -1.021882  z =  2.523065 angstrom
           Maximum rank =  0   Radius =  0.325 angstrom
                   Q00  =   0.099890

H          x = -1.029187  y = -1.946882  z =  1.138065 angstrom
           Maximum rank =  0   Radius =  0.325 angstrom
                   Q00  =   0.097735

H          x = -0.746187  y =  1.584118  z =  2.356065 angstrom
           Maximum rank =  0   Radius =  0.325 angstrom
                   Q00  =   0.054350

H          x = -0.004187  y =  3.108118  z = -1.561935 angstrom
           Maximum rank =  0   Radius =  0.325 angstrom
                   Q00  =   0.060215

H          x = -0.220187  y =  3.474118  z =  0.871065 angstrom
           Maximum rank =  0   Radius =  0.325 angstrom
                   Q00  =   0.063775

H          x = -2.175200  y = -0.956562  z =  2.057760 angstrom
           Maximum rank =  0   Radius =  0.325 angstrom
                   Q00  =   0.103405

Total multipoles referred to origin at
           x =   0.000000,  y =    0.000000,  z =    0.000000 angstrom
                   Q00  =  -0.000000

Finished at 19:5:35 on 27 Apr 2020  

  DMA results are available in the Python driver through the
	  variable('DMA DISTRIBUTED MULTIPOLES')
  and
	  variable('DMA TOTAL MULTIPOLES')
  commands.


    Psi4 stopped on: Monday, 27 April 2020 07:05PM
    Psi4 wall time for execution: 0:01:44.02

*** Psi4 exiting successfully. Buy a developer a beer!
