
    -----------------------------------------------------------------------
          Psi4: An Open-Source Ab Initio Electronic Structure Package
                               Psi4 1.3.2 release

                         Git: Rev {HEAD} ecbda83 


    R. M. Parrish, L. A. Burns, D. G. A. Smith, A. C. Simmonett,
    A. E. DePrince III, E. G. Hohenstein, U. Bozkaya, A. Yu. Sokolov,
    R. Di Remigio, R. M. Richard, J. F. Gonthier, A. M. James,
    H. R. McAlexander, A. Kumar, M. Saitow, X. Wang, B. P. Pritchard,
    P. Verma, H. F. Schaefer III, K. Patkowski, R. A. King, E. F. Valeev,
    F. A. Evangelista, J. M. Turney, T. D. Crawford, and C. D. Sherrill,
    J. Chem. Theory Comput. 13(7) pp 3185--3197 (2017).
    (doi: 10.1021/acs.jctc.7b00174)


                         Additional Contributions by
    P. Kraus, H. Kruse, M. H. Lechner, M. C. Schieber, R. A. Shaw,
    A. Alenaizan, R. Galvelis, Z. L. Glick, S. Lehtola, and J. P. Misiewicz

    -----------------------------------------------------------------------


    Psi4 started on: Monday, 27 April 2020 09:40PM

    Process ID: 30987
    Host:       ds3
    PSIDATADIR: /theoryfs2/ds/metcalf/miniconda2/envs/tf2gpu/share/psi4
    Memory:     500.0 MiB
    Threads:    1
    
  ==> Input File <==

--------------------------------------------------------------------------
import numpy as np
set {scf_type pk
basis cc-pvdz
d_convergence 10
gdma_switch   0
gdma_limit    0
gdma_origin   [ 0.0,  0.0,  0.0 ]
}
molecule test {
    units Angstrom
    0 1
    --
    0 1
    C               -1.033651448800170    -1.675753431807309    -0.355618533873667
    C               -2.518651448800170    -1.299753431807308    -0.391618533873667
    H               -0.481651448800170    -1.110753431807308    -1.104618533873667
    H               -0.624651448800170    -1.443753431807309     0.628381466126333
    H               -0.881651448800170    -2.739753431807309    -0.524618533873667
    H               -3.034651448800170    -1.952753431807308     0.308381466126333
    H               -2.969801448800170    -1.439933431807308    -1.384998533873667
    H               -2.640075448800169    -0.258253431807308    -0.059148533873667
    C                1.121348551199830     1.106246568192691     0.297381466126333
    C                2.426348551199830     1.877246568192692     0.444381466126333
    H                0.279348551199830     1.788246568192692     0.194381466126333
    H                1.175348551199830     0.479246568192692    -0.592618533873667
    H                0.965348551199830     0.471246568192692     1.170381466126333
    H                3.239348551199830     1.150246568192692     0.492381466126333
    H                2.423328351199830     2.457116568192692     1.379122466126333
    H                2.604600551199830     2.504006568192692    -0.441847533873667

}
e, wfn = energy('scf', return_wfn=True)
gdma(wfn)
dmavals = variable('DMA DISTRIBUTED MULTIPOLES')
charges = np.array(dmavals)
print(charges)
np.save('SSI-010VAL-044ALA-1-dimer.npy', np.array(charges))--------------------------------------------------------------------------

*** tstart() called on ds3
*** at Mon Apr 27 21:40:13 2020

   => Loading Basis Set <=

    Name: CC-PVDZ
    Role: ORBITAL
    Keyword: BASIS
    atoms 1-2, 9-10  entry C          line   138 file /theoryfs2/ds/metcalf/miniconda2/envs/tf2gpu/share/psi4/basis/cc-pvdz.gbs 
    atoms 3-8, 11-16 entry H          line    22 file /theoryfs2/ds/metcalf/miniconda2/envs/tf2gpu/share/psi4/basis/cc-pvdz.gbs 


         ---------------------------------------------------------
                                   SCF
               by Justin Turney, Rob Parrish, Andy Simmonett
                          and Daniel G. A. Smith
                              RHF Reference
                        1 Threads,    500 MiB Core
         ---------------------------------------------------------

  ==> Geometry <==

    Molecular point group: c1
    Full point group: C1

    Geometry (in Angstrom), charge = 0, multiplicity = 1:

       Center              X                  Y                   Z               Mass       
    ------------   -----------------  -----------------  -----------------  -----------------
         C           -1.033651448800    -1.675753431807    -0.355618533874    12.000000000000
         C           -2.518651448800    -1.299753431807    -0.391618533874    12.000000000000
         H           -0.481651448800    -1.110753431807    -1.104618533874     1.007825032230
         H           -0.624651448800    -1.443753431807     0.628381466126     1.007825032230
         H           -0.881651448800    -2.739753431807    -0.524618533874     1.007825032230
         H           -3.034651448800    -1.952753431807     0.308381466126     1.007825032230
         H           -2.969801448800    -1.439933431807    -1.384998533874     1.007825032230
         H           -2.640075448800    -0.258253431807    -0.059148533874     1.007825032230
         C            1.121348551200     1.106246568193     0.297381466126    12.000000000000
         C            2.426348551200     1.877246568193     0.444381466126    12.000000000000
         H            0.279348551200     1.788246568193     0.194381466126     1.007825032230
         H            1.175348551200     0.479246568193    -0.592618533874     1.007825032230
         H            0.965348551200     0.471246568193     1.170381466126     1.007825032230
         H            3.239348551200     1.150246568193     0.492381466126     1.007825032230
         H            2.423328351200     2.457116568193     1.379122466126     1.007825032230
         H            2.604600551200     2.504006568193    -0.441847533874     1.007825032230

  Running in c1 symmetry.

  Rotational constants: A =      0.66500  B =      0.04577  C =      0.04428 [cm^-1]
  Rotational constants: A =  19936.23199  B =   1372.29744  C =   1327.56825 [MHz]
  Nuclear repulsion =  122.060534985405667

  Charge       = 0
  Multiplicity = 1
  Electrons    = 36
  Nalpha       = 18
  Nbeta        = 18

  ==> Algorithm <==

  SCF Algorithm Type is PK.
  DIIS enabled.
  MOM disabled.
  Fractional occupation disabled.
  Guess Type is SAD.
  Energy threshold   = 1.00e-06
  Density threshold  = 1.00e-10
  Integral threshold = 0.00e+00

  ==> Primary Basis <==

  Basis Set: CC-PVDZ
    Blend: CC-PVDZ
    Number of shells: 60
    Number of basis function: 116
    Number of Cartesian functions: 120
    Spherical Harmonics?: true
    Max angular momentum: 2

  ==> Pre-Iterations <==

   -------------------------------------------------------
    Irrep   Nso     Nmo     Nalpha   Nbeta   Ndocc  Nsocc
   -------------------------------------------------------
     A        116     116       0       0       0       0
   -------------------------------------------------------
    Total     116     116      18      18      18       0
   -------------------------------------------------------

  ==> Integral Setup <==

  Using integral reordering PK algorithm.
  Sizing the integral batches needed.
  Building batch lookup table.
   Calculation information:
      Number of atoms:                  16
      Number of AO shells:              60
      Number of primitives:            148
      Number of atomic orbitals:       120
      Number of basis functions:       116

      Integral cutoff                 1.00e-12
      Number of threads:                 1

	Batch   1 pq = [       0,    6786] index = [             0,23028291] size =     23028291
  Task number: 3
  Buffer size: 11059200
  Buffer per thread: 2
  We computed 1414142 shell quartets total.
  Whereas there are 1675365 unique shell quartets.

  ==> DiskJK: Disk-Based J/K Matrices <==

    J tasked:                  Yes
    K tasked:                  Yes
    wK tasked:                  No
    Memory [MiB]:              375
    Schwarz Cutoff:          1E-12

    OpenMP threads:              1

  Minimum eigenvalue in the overlap matrix is 6.6079809894E-03.
  Using Symmetric Orthogonalization.

  SCF Guess: Superposition of Atomic Densities via on-the-fly atomic UHF.

  ==> Iterations <==

                        Total Energy        Delta E     RMS |[F,P]|

   @RHF iter SAD:  -157.36044032462934   -1.57360e+02   0.00000e+00 
   @RHF iter   1:  -158.30595529532042   -9.45515e-01   4.21923e-03 DIIS
   @RHF iter   2:  -158.43992975142439   -1.33974e-01   1.79701e-03 DIIS
   @RHF iter   3:  -158.46336844756277   -2.34387e-02   3.50091e-04 DIIS
   @RHF iter   4:  -158.46520059083591   -1.83214e-03   3.84816e-05 DIIS
   @RHF iter   5:  -158.46522372562646   -2.31348e-05   6.39303e-06 DIIS
   @RHF iter   6:  -158.46522433279821   -6.07172e-07   9.85476e-07 DIIS
   @RHF iter   7:  -158.46522434268508   -9.88686e-09   2.97074e-07 DIIS
   @RHF iter   8:  -158.46522434343666   -7.51584e-10   3.90835e-08 DIIS
   @RHF iter   9:  -158.46522434345781   -2.11458e-11   7.77389e-09 DIIS
   @RHF iter  10:  -158.46522434345894   -1.13687e-12   1.92331e-09 DIIS
   @RHF iter  11:  -158.46522434345897   -2.84217e-14   6.07353e-10 DIIS
   @RHF iter  12:  -158.46522434345886    1.13687e-13   1.71759e-10 DIIS
   @RHF iter  13:  -158.46522434345906   -1.98952e-13   2.25873e-11 DIIS
  Energy and wave function converged.


  ==> Post-Iterations <==

    Orbital Energies [Eh]
    ---------------------

    Doubly Occupied:                                                      

       1A    -11.218673     2A    -11.218639     3A    -11.215663  
       4A    -11.215063     5A     -1.020188     6A     -1.015668  
       7A     -0.839832     8A     -0.832607     9A     -0.603042  
      10A     -0.598245    11A     -0.595141    12A     -0.593793  
      13A     -0.505031    14A     -0.497772    15A     -0.491808  
      16A     -0.486330    17A     -0.480543    18A     -0.477125  

    Virtual:                                                              

      19A      0.175225    20A      0.194378    21A      0.228940  
      22A      0.230636    23A      0.235987    24A      0.258811  
      25A      0.267860    26A      0.276098    27A      0.279841  
      28A      0.297946    29A      0.318463    30A      0.354898  
      31A      0.392655    32A      0.399194    33A      0.563969  
      34A      0.593342    35A      0.594593    36A      0.605332  
      37A      0.607119    38A      0.631019    39A      0.680699  
      40A      0.685316    41A      0.697161    42A      0.780152  
      43A      0.842747    44A      0.868726    45A      0.885310  
      46A      0.890695    47A      0.893062    48A      0.895213  
      49A      0.908287    50A      0.909219    51A      0.916333  
      52A      0.928328    53A      0.953558    54A      0.958261  
      55A      0.973379    56A      0.986288    57A      1.123274  
      58A      1.125881    59A      1.132176    60A      1.160583  
      61A      1.219195    62A      1.261703    63A      1.462388  
      64A      1.476861    65A      1.485809    66A      1.494036  
      67A      1.580074    68A      1.593955    69A      1.676568  
      70A      1.683525    71A      1.691986    72A      1.703394  
      73A      1.851793    74A      1.861349    75A      1.866879  
      76A      1.877811    77A      1.899300    78A      1.917433  
      79A      1.939874    80A      1.942359    81A      1.946784  
      82A      1.950265    83A      1.953824    84A      1.961840  
      85A      1.964481    86A      1.970581    87A      1.976805  
      88A      2.066301    89A      2.091121    90A      2.098592  
      91A      2.118111    92A      2.126314    93A      2.295085  
      94A      2.299146    95A      2.315003    96A      2.350307  
      97A      2.447826    98A      2.447880    99A      2.472485  
     100A      2.482557   101A      2.555059   102A      2.563474  
     103A      2.573181   104A      2.582276   105A      2.760456  
     106A      2.763482   107A      2.782227   108A      2.798942  
     109A      2.840557   110A      2.854649   111A      2.863368  
     112A      2.868146   113A      2.945586   114A      2.961002  
     115A      2.967318   116A      2.977486  

    Final Occupation by Irrep:
              A 
    DOCC [    18 ]

  @RHF Final Energy:  -158.46522434345906

   => Energetics <=

    Nuclear Repulsion Energy =            122.0605349854056669
    One-Electron Energy =                -453.2411960147842365
    Two-Electron Energy =                 172.7154366859195420
    Total Energy =                       -158.4652243434590559

Computation Completed


Properties will be evaluated at   0.000000,   0.000000,   0.000000 [a0]

Properties computed using the SCF density matrix

  Nuclear Dipole Moment: [e a0]
     X:     0.0514      Y:    -0.0891      Z:     0.0611

  Electronic Dipole Moment: [e a0]
     X:    -0.0400      Y:     0.0696      Z:    -0.0540

  Dipole Moment: [e a0]
     X:     0.0114      Y:    -0.0195      Z:     0.0071     Total:     0.0237

  Dipole Moment: [D]
     X:     0.0290      Y:    -0.0497      Z:     0.0182     Total:     0.0603


*** tstop() called on ds3 at Mon Apr 27 21:40:23 2020
Module time:
	user time   =       7.51 seconds =       0.13 minutes
	system time =       3.07 seconds =       0.05 minutes
	total time  =         10 seconds =       0.17 minutes
Total time:
	user time   =       7.51 seconds =       0.13 minutes
	system time =       3.07 seconds =       0.05 minutes
	total time  =         10 seconds =       0.17 minutes
                                     G D M A

                                 by Anthony Stone

                           version 2.2.06, 22 June 2011

               Distributed Multipoles from Gaussian wavefunctions


Starting at 21:40:23 on 27 Apr 2020 


Using SCF density matrix from file ./SSI/SSI-010VAL-044ALA-1-dimer.test.30987.fchk


                         Distributed Multipole Analysis

Standard DMA

Positions and radii in angstrom
Multipole moments in atomic units, ea_0^k for rank k

C          x = -1.033651  y = -1.675753  z = -0.355619 angstrom
           Maximum rank =  0   Radius =  0.650 angstrom
                   Q00  =  -0.242666

C          x = -2.518651  y = -1.299753  z = -0.391619 angstrom
           Maximum rank =  0   Radius =  0.650 angstrom
                   Q00  =  -0.230279

H          x = -0.481651  y = -1.110753  z = -1.104619 angstrom
           Maximum rank =  0   Radius =  0.325 angstrom
                   Q00  =   0.079225

H          x = -0.624651  y = -1.443753  z =  0.628381 angstrom
           Maximum rank =  0   Radius =  0.325 angstrom
                   Q00  =   0.079152

H          x = -0.881651  y = -2.739753  z = -0.524619 angstrom
           Maximum rank =  0   Radius =  0.325 angstrom
                   Q00  =   0.078592

H          x = -3.034651  y = -1.952753  z =  0.308381 angstrom
           Maximum rank =  0   Radius =  0.325 angstrom
                   Q00  =   0.076675

H          x = -2.969801  y = -1.439933  z = -1.384999 angstrom
           Maximum rank =  0   Radius =  0.325 angstrom
                   Q00  =   0.080869

H          x = -2.640075  y = -0.258253  z = -0.059149 angstrom
           Maximum rank =  0   Radius =  0.325 angstrom
                   Q00  =   0.079201

C          x =  1.121349  y =  1.106247  z =  0.297381 angstrom
           Maximum rank =  0   Radius =  0.650 angstrom
                   Q00  =  -0.226680

C          x =  2.426349  y =  1.877247  z =  0.444381 angstrom
           Maximum rank =  0   Radius =  0.650 angstrom
                   Q00  =  -0.242919

H          x =  0.279349  y =  1.788247  z =  0.194381 angstrom
           Maximum rank =  0   Radius =  0.325 angstrom
                   Q00  =   0.078353

H          x =  1.175349  y =  0.479247  z = -0.592619 angstrom
           Maximum rank =  0   Radius =  0.325 angstrom
                   Q00  =   0.077330

H          x =  0.965349  y =  0.471247  z =  1.170381 angstrom
           Maximum rank =  0   Radius =  0.325 angstrom
                   Q00  =   0.078202

H          x =  3.239349  y =  1.150247  z =  0.492381 angstrom
           Maximum rank =  0   Radius =  0.325 angstrom
                   Q00  =   0.075744

H          x =  2.423328  y =  2.457117  z =  1.379122 angstrom
           Maximum rank =  0   Radius =  0.325 angstrom
                   Q00  =   0.079603

H          x =  2.604601  y =  2.504007  z = -0.441848 angstrom
           Maximum rank =  0   Radius =  0.325 angstrom
                   Q00  =   0.079597

Total multipoles referred to origin at
           x =   0.000000,  y =    0.000000,  z =    0.000000 angstrom
                   Q00  =  -0.000000

Finished at 21:40:23 on 27 Apr 2020 

  DMA results are available in the Python driver through the
	  variable('DMA DISTRIBUTED MULTIPOLES')
  and
	  variable('DMA TOTAL MULTIPOLES')
  commands.


    Psi4 stopped on: Monday, 27 April 2020 09:40PM
    Psi4 wall time for execution: 0:00:10.45

*** Psi4 exiting successfully. Buy a developer a beer!
