
    -----------------------------------------------------------------------
          Psi4: An Open-Source Ab Initio Electronic Structure Package
                               Psi4 1.3.2 release

                         Git: Rev {HEAD} ecbda83 


    R. M. Parrish, L. A. Burns, D. G. A. Smith, A. C. Simmonett,
    A. E. DePrince III, E. G. Hohenstein, U. Bozkaya, A. Yu. Sokolov,
    R. Di Remigio, R. M. Richard, J. F. Gonthier, A. M. James,
    H. R. McAlexander, A. Kumar, M. Saitow, X. Wang, B. P. Pritchard,
    P. Verma, H. F. Schaefer III, K. Patkowski, R. A. King, E. F. Valeev,
    F. A. Evangelista, J. M. Turney, T. D. Crawford, and C. D. Sherrill,
    J. Chem. Theory Comput. 13(7) pp 3185--3197 (2017).
    (doi: 10.1021/acs.jctc.7b00174)


                         Additional Contributions by
    P. Kraus, H. Kruse, M. H. Lechner, M. C. Schieber, R. A. Shaw,
    A. Alenaizan, R. Galvelis, Z. L. Glick, S. Lehtola, and J. P. Misiewicz

    -----------------------------------------------------------------------


    Psi4 started on: Tuesday, 28 April 2020 02:13PM

    Process ID: 8729
    Host:       ds3
    PSIDATADIR: /theoryfs2/ds/metcalf/miniconda2/envs/tf2gpu/share/psi4
    Memory:     500.0 MiB
    Threads:    1
    
  ==> Input File <==

--------------------------------------------------------------------------
import numpy as np
set {scf_type pk
basis cc-pvdz
d_convergence 10
gdma_switch   0
gdma_limit    0
gdma_origin   [ 0.0,  0.0,  0.0 ]
}
molecule test {
    units Angstrom
    0 1
    --
    0 1
    C                1.228851433399120    -0.296981956554214    -1.831417745024898
    C                1.602851433399120     0.123018043445786    -3.247417745024899
    H                0.184851433399120    -0.599981956554214    -1.790417745024898
    H                1.849851433399120    -1.136981956554215    -1.522417745024898
    H                1.396851433399120     0.530018043445786    -1.144417745024898
    H                2.652851433399120     0.391018043445786    -3.205417745024898
    H                1.010941433399120     0.990688043445786    -3.574210745024898
    H                1.496071433399120    -0.728351956554214    -3.935726745024898
    C               -0.514148566600880     0.270018043445786     2.713582254975102
    C               -0.713148566600880    -0.016981956554214     1.234582254975102
    O               -0.645148566600880    -1.163981956554214     0.793582254975102
    N               -0.993148566600880     1.023018043445786     0.464582254975102
    H               -1.307148566600880    -0.237981956554214     3.263582254975102
    H               -0.649148566600880     1.334018043445786     2.903582254975102
    H               -1.139148566600880     0.880018043445786    -0.528417745024898
    H               -1.027148566600880     1.952018043445786     0.855582254975102
    H                0.465921433399120    -0.056911956554214     3.091190254975102

}
e, wfn = energy('scf', return_wfn=True)
gdma(wfn)
dmavals = variable('DMA DISTRIBUTED MULTIPOLES')
charges = np.array(dmavals)
print(charges)
np.save('SSI-033VAL-091ASN-1-dimer.npy', np.array(charges))--------------------------------------------------------------------------

*** tstart() called on ds3
*** at Tue Apr 28 14:13:14 2020

   => Loading Basis Set <=

    Name: CC-PVDZ
    Role: ORBITAL
    Keyword: BASIS
    atoms 1-2, 9-10  entry C          line   138 file /theoryfs2/ds/metcalf/miniconda2/envs/tf2gpu/share/psi4/basis/cc-pvdz.gbs 
    atoms 3-8, 13-17 entry H          line    22 file /theoryfs2/ds/metcalf/miniconda2/envs/tf2gpu/share/psi4/basis/cc-pvdz.gbs 
    atoms 11         entry O          line   198 file /theoryfs2/ds/metcalf/miniconda2/envs/tf2gpu/share/psi4/basis/cc-pvdz.gbs 
    atoms 12         entry N          line   168 file /theoryfs2/ds/metcalf/miniconda2/envs/tf2gpu/share/psi4/basis/cc-pvdz.gbs 


         ---------------------------------------------------------
                                   SCF
               by Justin Turney, Rob Parrish, Andy Simmonett
                          and Daniel G. A. Smith
                              RHF Reference
                        1 Threads,    500 MiB Core
         ---------------------------------------------------------

  ==> Geometry <==

    Molecular point group: c1
    Full point group: C1

    Geometry (in Angstrom), charge = 0, multiplicity = 1:

       Center              X                  Y                   Z               Mass       
    ------------   -----------------  -----------------  -----------------  -----------------
         C            1.228851433399    -0.296981956554    -1.831417745025    12.000000000000
         C            1.602851433399     0.123018043446    -3.247417745025    12.000000000000
         H            0.184851433399    -0.599981956554    -1.790417745025     1.007825032230
         H            1.849851433399    -1.136981956554    -1.522417745025     1.007825032230
         H            1.396851433399     0.530018043446    -1.144417745025     1.007825032230
         H            2.652851433399     0.391018043446    -3.205417745025     1.007825032230
         H            1.010941433399     0.990688043446    -3.574210745025     1.007825032230
         H            1.496071433399    -0.728351956554    -3.935726745025     1.007825032230
         C           -0.514148566601     0.270018043446     2.713582254975    12.000000000000
         C           -0.713148566601    -0.016981956554     1.234582254975    12.000000000000
         O           -0.645148566601    -1.163981956554     0.793582254975    15.994914619570
         N           -0.993148566601     1.023018043446     0.464582254975    14.003074004430
         H           -1.307148566601    -0.237981956554     3.263582254975     1.007825032230
         H           -0.649148566601     1.334018043446     2.903582254975     1.007825032230
         H           -1.139148566601     0.880018043446    -0.528417745025     1.007825032230
         H           -1.027148566601     1.952018043446     0.855582254975     1.007825032230
         H            0.465921433399    -0.056911956554     3.091190254975     1.007825032230

  Running in c1 symmetry.

  Rotational constants: A =      0.23286  B =      0.03663  C =      0.03459 [cm^-1]
  Rotational constants: A =   6981.04301  B =   1098.15030  C =   1037.06667 [MHz]
  Nuclear repulsion =  234.417886507518517

  Charge       = 0
  Multiplicity = 1
  Electrons    = 50
  Nalpha       = 25
  Nbeta        = 25

  ==> Algorithm <==

  SCF Algorithm Type is PK.
  DIIS enabled.
  MOM disabled.
  Fractional occupation disabled.
  Guess Type is SAD.
  Energy threshold   = 1.00e-06
  Density threshold  = 1.00e-10
  Integral threshold = 0.00e+00

  ==> Primary Basis <==

  Basis Set: CC-PVDZ
    Blend: CC-PVDZ
    Number of shells: 69
    Number of basis function: 139
    Number of Cartesian functions: 145
    Spherical Harmonics?: true
    Max angular momentum: 2

  ==> Pre-Iterations <==

   -------------------------------------------------------
    Irrep   Nso     Nmo     Nalpha   Nbeta   Ndocc  Nsocc
   -------------------------------------------------------
     A        139     139       0       0       0       0
   -------------------------------------------------------
    Total     139     139      25      25      25       0
   -------------------------------------------------------

  ==> Integral Setup <==

  Using integral reordering PK algorithm.
  Sizing the integral batches needed.
  Building batch lookup table.
   Calculation information:
      Number of atoms:                  17
      Number of AO shells:              69
      Number of primitives:            187
      Number of atomic orbitals:       145
      Number of basis functions:       139

      Integral cutoff                 1.00e-12
      Number of threads:                 1

	Batch   1 pq = [       0,    9730] index = [             0,47341315] size =     47341315
  Task number: 5
  Buffer size: 11059200
  Buffer per thread: 2
  We computed 2461658 shell quartets total.
  Whereas there are 2917320 unique shell quartets.

  ==> DiskJK: Disk-Based J/K Matrices <==

    J tasked:                  Yes
    K tasked:                  Yes
    wK tasked:                  No
    Memory [MiB]:              375
    Schwarz Cutoff:          1E-12

    OpenMP threads:              1

  Minimum eigenvalue in the overlap matrix is 4.4170793329E-03.
  Using Symmetric Orthogonalization.

  SCF Guess: Superposition of Atomic Densities via on-the-fly atomic UHF.

  ==> Iterations <==

                        Total Energy        Delta E     RMS |[F,P]|

   @RHF iter SAD:  -285.96010231400686   -2.85960e+02   0.00000e+00 
   @RHF iter   1:  -286.99393127432865   -1.03383e+00   4.63724e-03 DIIS
   @RHF iter   2:  -287.16985800467103   -1.75927e-01   2.59616e-03 DIIS
   @RHF iter   3:  -287.21979721163461   -4.99392e-02   5.48111e-04 DIIS
   @RHF iter   4:  -287.22320522603707   -3.40801e-03   2.17966e-04 DIIS
   @RHF iter   5:  -287.22380508796954   -5.99862e-04   3.39111e-05 DIIS
   @RHF iter   6:  -287.22383451487065   -2.94269e-05   1.52319e-05 DIIS
   @RHF iter   7:  -287.22383911442074   -4.59955e-06   6.06784e-06 DIIS
   @RHF iter   8:  -287.22384014764907   -1.03323e-06   2.14634e-06 DIIS
   @RHF iter   9:  -287.22384028402803   -1.36379e-07   5.34682e-07 DIIS
   @RHF iter  10:  -287.22384029043712   -6.40910e-09   1.71620e-07 DIIS
   @RHF iter  11:  -287.22384029111385   -6.76721e-10   3.85651e-08 DIIS
   @RHF iter  12:  -287.22384029115091   -3.70619e-11   8.56702e-09 DIIS
   @RHF iter  13:  -287.22384029115312   -2.21689e-12   1.63072e-09 DIIS
   @RHF iter  14:  -287.22384029115500   -1.87583e-12   6.74986e-10 DIIS
   @RHF iter  15:  -287.22384029115420    7.95808e-13   2.15112e-10 DIIS
   @RHF iter  16:  -287.22384029115432   -1.13687e-13   6.14288e-11 DIIS
  Energy and wave function converged.


  ==> Post-Iterations <==

    Orbital Energies [Eh]
    ---------------------

    Doubly Occupied:                                                      

       1A    -20.501495     2A    -15.590697     3A    -11.348169  
       4A    -11.243713     5A    -11.212433     6A    -11.204926  
       7A     -1.365240     8A     -1.217833     9A     -1.013365  
      10A     -0.999398    11A     -0.827885    12A     -0.801160  
      13A     -0.728424    14A     -0.654195    15A     -0.611502  
      16A     -0.593873    17A     -0.592368    18A     -0.568463  
      19A     -0.557834    20A     -0.524090    21A     -0.490196  
      22A     -0.479970    23A     -0.476013    24A     -0.407413  
      25A     -0.402428  

    Virtual:                                                              

      26A      0.161568    27A      0.188999    28A      0.199308  
      29A      0.217476    30A      0.228476    31A      0.251774  
      32A      0.258218    33A      0.275132    34A      0.282026  
      35A      0.284922    36A      0.294600    37A      0.320416  
      38A      0.386410    39A      0.398160    40A      0.473410  
      41A      0.560409    42A      0.609096    43A      0.616733  
      44A      0.619896    45A      0.632355    46A      0.667284  
      47A      0.680862    48A      0.695949    49A      0.705620  
      50A      0.731701    51A      0.741957    52A      0.804444  
      53A      0.834751    54A      0.852631    55A      0.877655  
      56A      0.890248    57A      0.897132    58A      0.899848  
      59A      0.906726    60A      0.918984    61A      0.930490  
      62A      0.937014    63A      0.962871    64A      0.981239  
      65A      1.003156    66A      1.043104    67A      1.067569  
      68A      1.119345    69A      1.131324    70A      1.137558  
      71A      1.171406    72A      1.243957    73A      1.328980  
      74A      1.372906    75A      1.402196    76A      1.409356  
      77A      1.424421    78A      1.444239    79A      1.478597  
      80A      1.492762    81A      1.519571    82A      1.590865  
      83A      1.623110    84A      1.663447    85A      1.680490  
      86A      1.699194    87A      1.725281    88A      1.836812  
      89A      1.851413    90A      1.866946    91A      1.877996  
      92A      1.885742    93A      1.897059    94A      1.918790  
      95A      1.924782    96A      1.930070    97A      1.958859  
      98A      1.963537    99A      1.972712   100A      1.983865  
     101A      1.997647   102A      2.020060   103A      2.056844  
     104A      2.088231   105A      2.102937   106A      2.119115  
     107A      2.140993   108A      2.234813   109A      2.298371  
     110A      2.311641   111A      2.332525   112A      2.418707  
     113A      2.436574   114A      2.457820   115A      2.459093  
     116A      2.490195   117A      2.543005   118A      2.567440  
     119A      2.571870   120A      2.594332   121A      2.636203  
     122A      2.741730   123A      2.771733   124A      2.776625  
     125A      2.799932   126A      2.807466   127A      2.843599  
     128A      2.855949   129A      2.863449   130A      2.954836  
     131A      2.967130   132A      2.986001   133A      3.097431  
     134A      3.134492   135A      3.279645   136A      3.499354  
     137A      3.527723   138A      3.865808   139A      3.911270  

    Final Occupation by Irrep:
              A 
    DOCC [    25 ]

  @RHF Final Energy:  -287.22384029115432

   => Energetics <=

    Nuclear Repulsion Energy =            234.4178865075185172
    One-Electron Energy =                -854.4572913033777013
    Two-Electron Energy =                 332.8155645047048097
    Total Energy =                       -287.2238402911543176

Computation Completed


Properties will be evaluated at   0.000000,   0.000000,   0.000000 [a0]

Properties computed using the SCF density matrix

  Nuclear Dipole Moment: [e a0]
     X:     4.6260      Y:     3.1016      Z:    -5.2353

  Electronic Dipole Moment: [e a0]
     X:    -4.8082      Y:    -1.5050      Z:     5.6443

  Dipole Moment: [e a0]
     X:    -0.1822      Y:     1.5966      Z:     0.4091     Total:     1.6582

  Dipole Moment: [D]
     X:    -0.4631      Y:     4.0580      Z:     1.0397     Total:     4.2146


*** tstop() called on ds3 at Tue Apr 28 14:13:40 2020
Module time:
	user time   =      18.86 seconds =       0.31 minutes
	system time =       7.64 seconds =       0.13 minutes
	total time  =         26 seconds =       0.43 minutes
Total time:
	user time   =      18.86 seconds =       0.31 minutes
	system time =       7.64 seconds =       0.13 minutes
	total time  =         26 seconds =       0.43 minutes
                                     G D M A

                                 by Anthony Stone

                           version 2.2.06, 22 June 2011

               Distributed Multipoles from Gaussian wavefunctions


Starting at 14:13:40 on 28 Apr 2020 


Using SCF density matrix from file ./SSI/SSI-033VAL-091ASN-1-dimer.test.8729.fchk


                         Distributed Multipole Analysis

Standard DMA

Positions and radii in angstrom
Multipole moments in atomic units, ea_0^k for rank k

C          x =  1.228851  y = -0.296982  z = -1.831418 angstrom
           Maximum rank =  0   Radius =  0.650 angstrom
                   Q00  =  -0.219803

C          x =  1.602851  y =  0.123018  z = -3.247418 angstrom
           Maximum rank =  0   Radius =  0.650 angstrom
                   Q00  =  -0.241361

H          x =  0.184851  y = -0.599982  z = -1.790418 angstrom
           Maximum rank =  0   Radius =  0.325 angstrom
                   Q00  =   0.075890

H          x =  1.849851  y = -1.136982  z = -1.522418 angstrom
           Maximum rank =  0   Radius =  0.325 angstrom
                   Q00  =   0.086835

H          x =  1.396851  y =  0.530018  z = -1.144418 angstrom
           Maximum rank =  0   Radius =  0.325 angstrom
                   Q00  =   0.062184

H          x =  2.652851  y =  0.391018  z = -3.205418 angstrom
           Maximum rank =  0   Radius =  0.325 angstrom
                   Q00  =   0.073814

H          x =  1.010941  y =  0.990688  z = -3.574211 angstrom
           Maximum rank =  0   Radius =  0.325 angstrom
                   Q00  =   0.071013

H          x =  1.496071  y = -0.728352  z = -3.935727 angstrom
           Maximum rank =  0   Radius =  0.325 angstrom
                   Q00  =   0.080358

C          x = -0.514149  y =  0.270018  z =  2.713582 angstrom
           Maximum rank =  0   Radius =  0.650 angstrom
                   Q00  =  -0.257156

C          x = -0.713149  y = -0.016982  z =  1.234582 angstrom
           Maximum rank =  0   Radius =  0.650 angstrom
                   Q00  =   0.798800

O          x = -0.645149  y = -1.163982  z =  0.793582 angstrom
           Maximum rank =  0   Radius =  0.650 angstrom
                   Q00  =  -0.783829

N          x = -0.993149  y =  1.023018  z =  0.464582 angstrom
           Maximum rank =  0   Radius =  0.650 angstrom
                   Q00  =  -0.517916

H          x = -1.307149  y = -0.237982  z =  3.263582 angstrom
           Maximum rank =  0   Radius =  0.325 angstrom
                   Q00  =   0.134866

H          x = -0.649149  y =  1.334018  z =  2.903582 angstrom
           Maximum rank =  0   Radius =  0.325 angstrom
                   Q00  =   0.067997

H          x = -1.139149  y =  0.880018  z = -0.528418 angstrom
           Maximum rank =  0   Radius =  0.325 angstrom
                   Q00  =   0.230765

H          x = -1.027149  y =  1.952018  z =  0.855582 angstrom
           Maximum rank =  0   Radius =  0.325 angstrom
                   Q00  =   0.204103

H          x =  0.465921  y = -0.056912  z =  3.091190 angstrom
           Maximum rank =  0   Radius =  0.325 angstrom
                   Q00  =   0.133442

Total multipoles referred to origin at
           x =   0.000000,  y =    0.000000,  z =    0.000000 angstrom
                   Q00  =  -0.000000

Finished at 14:13:40 on 28 Apr 2020 

  DMA results are available in the Python driver through the
	  variable('DMA DISTRIBUTED MULTIPOLES')
  and
	  variable('DMA TOTAL MULTIPOLES')
  commands.


    Psi4 stopped on: Tuesday, 28 April 2020 02:13PM
    Psi4 wall time for execution: 0:00:26.11

*** Psi4 exiting successfully. Buy a developer a beer!
