
    -----------------------------------------------------------------------
          Psi4: An Open-Source Ab Initio Electronic Structure Package
                               Psi4 1.3.2 release

                         Git: Rev {HEAD} ecbda83 


    R. M. Parrish, L. A. Burns, D. G. A. Smith, A. C. Simmonett,
    A. E. DePrince III, E. G. Hohenstein, U. Bozkaya, A. Yu. Sokolov,
    R. Di Remigio, R. M. Richard, J. F. Gonthier, A. M. James,
    H. R. McAlexander, A. Kumar, M. Saitow, X. Wang, B. P. Pritchard,
    P. Verma, H. F. Schaefer III, K. Patkowski, R. A. King, E. F. Valeev,
    F. A. Evangelista, J. M. Turney, T. D. Crawford, and C. D. Sherrill,
    J. Chem. Theory Comput. 13(7) pp 3185--3197 (2017).
    (doi: 10.1021/acs.jctc.7b00174)


                         Additional Contributions by
    P. Kraus, H. Kruse, M. H. Lechner, M. C. Schieber, R. A. Shaw,
    A. Alenaizan, R. Galvelis, Z. L. Glick, S. Lehtola, and J. P. Misiewicz

    -----------------------------------------------------------------------


    Psi4 started on: Monday, 27 April 2020 10:59PM

    Process ID: 20945
    Host:       ds3
    PSIDATADIR: /theoryfs2/ds/metcalf/miniconda2/envs/tf2gpu/share/psi4
    Memory:     500.0 MiB
    Threads:    1
    
  ==> Input File <==

--------------------------------------------------------------------------
import numpy as np
set {scf_type pk
basis cc-pvdz
d_convergence 10
gdma_switch   0
gdma_limit    0
gdma_origin   [ 0.0,  0.0,  0.0 ]
}
molecule test {
    units Angstrom
    0 1
    --
    0 1
    C               -3.057986048133452     1.112115849360585     0.644945247493772
    C                0.708013951866547     0.276115849360585     0.561945247493772
    C               -0.488986048133453     0.976115849360585     0.376945247493772
    C                0.687013951866547    -0.988884150639415     1.159945247493772
    C               -1.714986048133453     0.423115849360585     0.814945247493772
    C               -0.515986048133453    -1.516884150639415     1.597945247493772
    C               -1.693986048133453    -0.813884150639415     1.442945247493772
    H                1.644013951866548     0.704115849360585     0.234945247493772
    H               -0.484986048133453     1.931115849360585    -0.122054752506228
    H                1.606013951866547    -1.543884150639415     1.291945247493772
    H               -0.531986048133453    -2.489884150639415     2.069945247493772
    H               -3.082986048133452     1.982115849360585     1.295945247493772
    H               -3.858986048133452     0.446115849360585     0.967945247493772
    H               -2.614986048133453    -1.255884150639415     1.797945247493772
    H               -3.263656048133452     1.441895849360585    -0.384104752506228
    C                2.370013951866548    -0.439884150639415    -2.688054752506228
    C                3.190013951866547     0.789115849360585    -3.065054752506227
    H                1.979013951866547    -0.929884150639415    -3.578054752506227
    H                3.010013951866548    -1.158884150639415    -2.178054752506227
    H                1.554013951866548    -0.168884150639415    -2.023054752506228
    H                3.903013951866547     0.487115849360585    -3.830054752506228
    H                2.525223951866547     1.589585849360585    -3.421854752506228
    H                3.770613951866547     1.143685849360585    -2.200654752506228

}
e, wfn = energy('scf', return_wfn=True)
gdma(wfn)
dmavals = variable('DMA DISTRIBUTED MULTIPOLES')
charges = np.array(dmavals)
print(charges)
np.save('SSI-121PHE-191LEU-1-dimer.npy', np.array(charges))--------------------------------------------------------------------------

*** tstart() called on ds3
*** at Mon Apr 27 22:59:43 2020

   => Loading Basis Set <=

    Name: CC-PVDZ
    Role: ORBITAL
    Keyword: BASIS
    atoms 1-7, 16-17  entry C          line   138 file /theoryfs2/ds/metcalf/miniconda2/envs/tf2gpu/share/psi4/basis/cc-pvdz.gbs 
    atoms 8-15, 18-23 entry H          line    22 file /theoryfs2/ds/metcalf/miniconda2/envs/tf2gpu/share/psi4/basis/cc-pvdz.gbs 


         ---------------------------------------------------------
                                   SCF
               by Justin Turney, Rob Parrish, Andy Simmonett
                          and Daniel G. A. Smith
                              RHF Reference
                        1 Threads,    500 MiB Core
         ---------------------------------------------------------

  ==> Geometry <==

    Molecular point group: c1
    Full point group: C1

    Geometry (in Angstrom), charge = 0, multiplicity = 1:

       Center              X                  Y                   Z               Mass       
    ------------   -----------------  -----------------  -----------------  -----------------
         C           -3.057986048133     1.112115849361     0.644945247494    12.000000000000
         C            0.708013951867     0.276115849361     0.561945247494    12.000000000000
         C           -0.488986048133     0.976115849361     0.376945247494    12.000000000000
         C            0.687013951867    -0.988884150639     1.159945247494    12.000000000000
         C           -1.714986048133     0.423115849361     0.814945247494    12.000000000000
         C           -0.515986048133    -1.516884150639     1.597945247494    12.000000000000
         C           -1.693986048133    -0.813884150639     1.442945247494    12.000000000000
         H            1.644013951867     0.704115849361     0.234945247494     1.007825032230
         H           -0.484986048133     1.931115849361    -0.122054752506     1.007825032230
         H            1.606013951867    -1.543884150639     1.291945247494     1.007825032230
         H           -0.531986048133    -2.489884150639     2.069945247494     1.007825032230
         H           -3.082986048133     1.982115849361     1.295945247494     1.007825032230
         H           -3.858986048133     0.446115849361     0.967945247494     1.007825032230
         H           -2.614986048133    -1.255884150639     1.797945247494     1.007825032230
         H           -3.263656048133     1.441895849361    -0.384104752506     1.007825032230
         C            2.370013951867    -0.439884150639    -2.688054752506    12.000000000000
         C            3.190013951867     0.789115849361    -3.065054752506    12.000000000000
         H            1.979013951867    -0.929884150639    -3.578054752506     1.007825032230
         H            3.010013951867    -1.158884150639    -2.178054752506     1.007825032230
         H            1.554013951867    -0.168884150639    -2.023054752506     1.007825032230
         H            3.903013951867     0.487115849361    -3.830054752506     1.007825032230
         H            2.525223951867     1.589585849361    -3.421854752506     1.007825032230
         H            3.770613951867     1.143685849361    -2.200654752506     1.007825032230

  Running in c1 symmetry.

  Rotational constants: A =      0.08120  B =      0.02136  C =      0.01836 [cm^-1]
  Rotational constants: A =   2434.28293  B =    640.28923  C =    550.48665 [MHz]
  Nuclear repulsion =  400.764803846573557

  Charge       = 0
  Multiplicity = 1
  Electrons    = 68
  Nalpha       = 34
  Nbeta        = 34

  ==> Algorithm <==

  SCF Algorithm Type is PK.
  DIIS enabled.
  MOM disabled.
  Fractional occupation disabled.
  Guess Type is SAD.
  Energy threshold   = 1.00e-06
  Density threshold  = 1.00e-10
  Integral threshold = 0.00e+00

  ==> Primary Basis <==

  Basis Set: CC-PVDZ
    Blend: CC-PVDZ
    Number of shells: 96
    Number of basis function: 196
    Number of Cartesian functions: 205
    Spherical Harmonics?: true
    Max angular momentum: 2

  ==> Pre-Iterations <==

   -------------------------------------------------------
    Irrep   Nso     Nmo     Nalpha   Nbeta   Ndocc  Nsocc
   -------------------------------------------------------
     A        196     196       0       0       0       0
   -------------------------------------------------------
    Total     196     196      34      34      34       0
   -------------------------------------------------------

  ==> Integral Setup <==

  Using integral reordering PK algorithm.
  Sizing the integral batches needed.
  Building batch lookup table.
   Calculation information:
      Number of atoms:                  23
      Number of AO shells:              96
      Number of primitives:            268
      Number of atomic orbitals:       205
      Number of basis functions:       196

      Integral cutoff                 1.00e-12
      Number of threads:                 1

	Batch   1 pq = [       0,    9405] index = [             0,44231715] size =     44231715
	Batch   2 pq = [    9405,   13301] index = [      44231715,88464951] size =     44233236
	Batch   3 pq = [   13301,   16290] index = [      88464951,132690195] size =     44225244
	Batch   4 pq = [   16290,   18810] index = [     132690195,176917455] size =     44227260
	Batch   5 pq = [   18810,   19306] index = [     176917455,186370471] size =      9453016
  Task number: 17
  Buffer size: 11059200
  Buffer per thread: 2
  We computed 8904915 shell quartets total.
  Whereas there are 10841496 unique shell quartets.

  ==> DiskJK: Disk-Based J/K Matrices <==

    J tasked:                  Yes
    K tasked:                  Yes
    wK tasked:                  No
    Memory [MiB]:              375
    Schwarz Cutoff:          1E-12

    OpenMP threads:              1

  Minimum eigenvalue in the overlap matrix is 3.1179993446E-04.
  Using Symmetric Orthogonalization.

  SCF Guess: Superposition of Atomic Densities via on-the-fly atomic UHF.

  ==> Iterations <==

                        Total Energy        Delta E     RMS |[F,P]|

   @RHF iter SAD:  -347.83857300156558   -3.47839e+02   0.00000e+00 
   @RHF iter   1:  -348.76667856366294   -9.28106e-01   2.88961e-03 DIIS
   @RHF iter   2:  -348.95876608494552   -1.92088e-01   1.19219e-03 DIIS
   @RHF iter   3:  -348.98851342437143   -2.97473e-02   2.56402e-04 DIIS
   @RHF iter   4:  -348.99096223119932   -2.44881e-03   5.19043e-05 DIIS
   @RHF iter   5:  -348.99103364887264   -7.14177e-05   1.75290e-05 DIIS
   @RHF iter   6:  -348.99104150167631   -7.85280e-06   4.74654e-06 DIIS
   @RHF iter   7:  -348.99104218614929   -6.84473e-07   1.31820e-06 DIIS
   @RHF iter   8:  -348.99104226561991   -7.94706e-08   4.29103e-07 DIIS
   @RHF iter   9:  -348.99104228454956   -1.89297e-08   2.11064e-07 DIIS
   @RHF iter  10:  -348.99104228977342   -5.22385e-09   1.04294e-07 DIIS
   @RHF iter  11:  -348.99104229107672   -1.30331e-09   3.38827e-08 DIIS
   @RHF iter  12:  -348.99104229119905   -1.22327e-10   1.45786e-08 DIIS
   @RHF iter  13:  -348.99104229120888   -9.83391e-12   3.81515e-09 DIIS
   @RHF iter  14:  -348.99104229121127   -2.38742e-12   1.09401e-09 DIIS
   @RHF iter  15:  -348.99104229121042    8.52651e-13   4.23532e-10 DIIS
   @RHF iter  16:  -348.99104229120996    4.54747e-13   2.04446e-10 DIIS
   @RHF iter  17:  -348.99104229120928    6.82121e-13   8.05764e-11 DIIS
  Energy and wave function converged.


  ==> Post-Iterations <==

    Orbital Energies [Eh]
    ---------------------

    Doubly Occupied:                                                      

       1A    -11.244062     2A    -11.238137     3A    -11.234724  
       4A    -11.232784     5A    -11.231151     6A    -11.231071  
       7A    -11.227527     8A    -11.217519     9A    -11.210668  
      10A     -1.151383    11A     -1.042088    12A     -1.017145  
      13A     -1.011736    14A     -0.931475    15A     -0.833771  
      16A     -0.823204    17A     -0.796704    18A     -0.691258  
      19A     -0.631416    20A     -0.629551    21A     -0.599950  
      22A     -0.593818    23A     -0.581677    24A     -0.574453  
      25A     -0.562355    26A     -0.536514    27A     -0.498253  
      28A     -0.490924    29A     -0.487014    30A     -0.481381  
      31A     -0.480939    32A     -0.477464    33A     -0.332659  
      34A     -0.320986  

    Virtual:                                                              

      35A      0.135070    36A      0.141377    37A      0.169553  
      38A      0.190992    39A      0.205502    40A      0.227913  
      41A      0.230478    42A      0.238597    43A      0.252078  
      44A      0.260783    45A      0.267832    46A      0.271200  
      47A      0.276453    48A      0.297050    49A      0.305498  
      50A      0.326455    51A      0.364693    52A      0.374460  
      53A      0.399419    54A      0.451885    55A      0.459287  
      56A      0.476467    57A      0.500984    58A      0.564700  
      59A      0.595738    60A      0.602096    61A      0.606555  
      62A      0.620124    63A      0.625565    64A      0.665561  
      65A      0.674777    66A      0.690634    67A      0.698944  
      68A      0.711374    69A      0.717182    70A      0.736439  
      71A      0.745985    72A      0.748369    73A      0.754996  
      74A      0.764883    75A      0.781805    76A      0.803936  
      77A      0.840636    78A      0.857080    79A      0.858947  
      80A      0.864980    81A      0.872267    82A      0.881990  
      83A      0.891019    84A      0.892854    85A      0.898770  
      86A      0.904396    87A      0.907891    88A      0.924059  
      89A      0.927288    90A      0.943704    91A      0.945060  
      92A      0.960544    93A      0.986457    94A      1.007854  
      95A      1.039906    96A      1.071009    97A      1.113062  
      98A      1.117998    99A      1.140936   100A      1.143194  
     101A      1.155585   102A      1.164505   103A      1.195579  
     104A      1.214363   105A      1.241019   106A      1.247660  
     107A      1.262636   108A      1.276889   109A      1.297190  
     110A      1.307681   111A      1.325448   112A      1.329717  
     113A      1.409799   114A      1.475282   115A      1.485389  
     116A      1.505418   117A      1.526924   118A      1.550400  
     119A      1.566466   120A      1.612889   121A      1.673073  
     122A      1.680553   123A      1.688960   124A      1.707598  
     125A      1.734099   126A      1.742413   127A      1.761658  
     128A      1.788455   129A      1.819557   130A      1.847939  
     131A      1.863502   132A      1.876548   133A      1.889128  
     134A      1.894447   135A      1.898804   136A      1.907188  
     137A      1.918252   138A      1.923899   139A      1.932786  
     140A      1.944555   141A      1.953765   142A      1.954632  
     143A      1.955762   144A      1.961356   145A      1.974495  
     146A      1.981366   147A      1.984683   148A      2.003013  
     149A      2.033139   150A      2.065878   151A      2.077795  
     152A      2.118455   153A      2.122038   154A      2.124655  
     155A      2.136193   156A      2.156822   157A      2.162215  
     158A      2.173124   159A      2.187948   160A      2.244727  
     161A      2.261384   162A      2.284055   163A      2.294476  
     164A      2.302053   165A      2.321819   166A      2.327741  
     167A      2.359337   168A      2.443697   169A      2.455161  
     170A      2.461080   171A      2.467812   172A      2.507897  
     173A      2.538907   174A      2.575860   175A      2.589395  
     176A      2.630886   177A      2.719098   178A      2.744794  
     179A      2.765605   180A      2.768498   181A      2.785363  
     182A      2.805823   183A      2.816877   184A      2.846248  
     185A      2.850384   186A      2.859001   187A      2.862260  
     188A      2.957244   189A      2.971700   190A      2.985678  
     191A      3.011831   192A      3.037841   193A      3.167569  
     194A      3.192289   195A      3.299557   196A      3.959510  

    Final Occupation by Irrep:
              A 
    DOCC [    34 ]

  @RHF Final Energy:  -348.99104229120928

   => Energetics <=

    Nuclear Repulsion Energy =            400.7648038465735567
    One-Electron Energy =               -1264.2201683727241743
    Two-Electron Energy =                 514.4643222349412781
    Total Energy =                       -348.9910422912092827

Computation Completed


Properties will be evaluated at   0.000000,   0.000000,   0.000000 [a0]

Properties computed using the SCF density matrix

  Nuclear Dipole Moment: [e a0]
     X:     5.7695      Y:     2.0422      Z:    -9.4490

  Electronic Dipole Moment: [e a0]
     X:    -5.9234      Y:    -2.0034      Z:     9.4730

  Dipole Moment: [e a0]
     X:    -0.1539      Y:     0.0389      Z:     0.0241     Total:     0.1605

  Dipole Moment: [D]
     X:    -0.3911      Y:     0.0988      Z:     0.0612     Total:     0.4079


*** tstop() called on ds3 at Mon Apr 27 23:01:17 2020
Module time:
	user time   =      66.96 seconds =       1.12 minutes
	system time =      31.03 seconds =       0.52 minutes
	total time  =         94 seconds =       1.57 minutes
Total time:
	user time   =      66.96 seconds =       1.12 minutes
	system time =      31.03 seconds =       0.52 minutes
	total time  =         94 seconds =       1.57 minutes
                                     G D M A

                                 by Anthony Stone

                           version 2.2.06, 22 June 2011

               Distributed Multipoles from Gaussian wavefunctions


Starting at 23:1:17 on 27 Apr 2020  


Using SCF density matrix from file ./SSI/SSI-121PHE-191LEU-1-dimer.test.20945.fchk


                         Distributed Multipole Analysis

Standard DMA

Positions and radii in angstrom
Multipole moments in atomic units, ea_0^k for rank k

C          x = -3.057986  y =  1.112116  z =  0.644945 angstrom
           Maximum rank =  0   Radius =  0.650 angstrom
                   Q00  =  -0.213037

C          x =  0.708014  y =  0.276116  z =  0.561945 angstrom
           Maximum rank =  0   Radius =  0.650 angstrom
                   Q00  =  -0.080472

C          x = -0.488986  y =  0.976116  z =  0.376945 angstrom
           Maximum rank =  0   Radius =  0.650 angstrom
                   Q00  =  -0.094496

C          x =  0.687014  y = -0.988884  z =  1.159945 angstrom
           Maximum rank =  0   Radius =  0.650 angstrom
                   Q00  =  -0.093189

C          x = -1.714986  y =  0.423116  z =  0.814945 angstrom
           Maximum rank =  0   Radius =  0.650 angstrom
                   Q00  =  -0.098008

C          x = -0.515986  y = -1.516884  z =  1.597945 angstrom
           Maximum rank =  0   Radius =  0.650 angstrom
                   Q00  =  -0.024987

C          x = -1.693986  y = -0.813884  z =  1.442945 angstrom
           Maximum rank =  0   Radius =  0.650 angstrom
                   Q00  =  -0.008038

H          x =  1.644014  y =  0.704116  z =  0.234945 angstrom
           Maximum rank =  0   Radius =  0.325 angstrom
                   Q00  =   0.068142

H          x = -0.484986  y =  1.931116  z = -0.122055 angstrom
           Maximum rank =  0   Radius =  0.325 angstrom
                   Q00  =   0.058826

H          x =  1.606014  y = -1.543884  z =  1.291945 angstrom
           Maximum rank =  0   Radius =  0.325 angstrom
                   Q00  =   0.062402

H          x = -0.531986  y = -2.489884  z =  2.069945 angstrom
           Maximum rank =  0   Radius =  0.325 angstrom
                   Q00  =   0.061968

H          x = -3.082986  y =  1.982116  z =  1.295945 angstrom
           Maximum rank =  0   Radius =  0.325 angstrom
                   Q00  =   0.104240

H          x = -3.858986  y =  0.446116  z =  0.967945 angstrom
           Maximum rank =  0   Radius =  0.325 angstrom
                   Q00  =   0.098173

H          x = -2.614986  y = -1.255884  z =  1.797945 angstrom
           Maximum rank =  0   Radius =  0.325 angstrom
                   Q00  =   0.055224

H          x = -3.263656  y =  1.441896  z = -0.384105 angstrom
           Maximum rank =  0   Radius =  0.325 angstrom
                   Q00  =   0.103331

C          x =  2.370014  y = -0.439884  z = -2.688055 angstrom
           Maximum rank =  0   Radius =  0.650 angstrom
                   Q00  =  -0.231860

C          x =  3.190014  y =  0.789116  z = -3.065055 angstrom
           Maximum rank =  0   Radius =  0.650 angstrom
                   Q00  =  -0.238693

H          x =  1.979014  y = -0.929884  z = -3.578055 angstrom
           Maximum rank =  0   Radius =  0.325 angstrom
                   Q00  =   0.078598

H          x =  3.010014  y = -1.158884  z = -2.178055 angstrom
           Maximum rank =  0   Radius =  0.325 angstrom
                   Q00  =   0.072566

H          x =  1.554014  y = -0.168884  z = -2.023055 angstrom
           Maximum rank =  0   Radius =  0.325 angstrom
                   Q00  =   0.089220

H          x =  3.903014  y =  0.487116  z = -3.830055 angstrom
           Maximum rank =  0   Radius =  0.325 angstrom
                   Q00  =   0.078539

H          x =  2.525224  y =  1.589586  z = -3.421855 angstrom
           Maximum rank =  0   Radius =  0.325 angstrom
                   Q00  =   0.078272

H          x =  3.770614  y =  1.143686  z = -2.200655 angstrom
           Maximum rank =  0   Radius =  0.325 angstrom
                   Q00  =   0.073279

Total multipoles referred to origin at
           x =   0.000000,  y =    0.000000,  z =    0.000000 angstrom
                   Q00  =  -0.000000

Finished at 23:1:17 on 27 Apr 2020  

  DMA results are available in the Python driver through the
	  variable('DMA DISTRIBUTED MULTIPOLES')
  and
	  variable('DMA TOTAL MULTIPOLES')
  commands.


    Psi4 stopped on: Monday, 27 April 2020 11:01PM
    Psi4 wall time for execution: 0:01:34.30

*** Psi4 exiting successfully. Buy a developer a beer!
