
    -----------------------------------------------------------------------
          Psi4: An Open-Source Ab Initio Electronic Structure Package
                               Psi4 1.3.2 release

                         Git: Rev {HEAD} ecbda83 


    R. M. Parrish, L. A. Burns, D. G. A. Smith, A. C. Simmonett,
    A. E. DePrince III, E. G. Hohenstein, U. Bozkaya, A. Yu. Sokolov,
    R. Di Remigio, R. M. Richard, J. F. Gonthier, A. M. James,
    H. R. McAlexander, A. Kumar, M. Saitow, X. Wang, B. P. Pritchard,
    P. Verma, H. F. Schaefer III, K. Patkowski, R. A. King, E. F. Valeev,
    F. A. Evangelista, J. M. Turney, T. D. Crawford, and C. D. Sherrill,
    J. Chem. Theory Comput. 13(7) pp 3185--3197 (2017).
    (doi: 10.1021/acs.jctc.7b00174)


                         Additional Contributions by
    P. Kraus, H. Kruse, M. H. Lechner, M. C. Schieber, R. A. Shaw,
    A. Alenaizan, R. Galvelis, Z. L. Glick, S. Lehtola, and J. P. Misiewicz

    -----------------------------------------------------------------------


    Psi4 started on: Monday, 27 April 2020 07:25AM

    Process ID: 9683
    Host:       ds3
    PSIDATADIR: /theoryfs2/ds/metcalf/miniconda2/envs/tf2gpu/share/psi4
    Memory:     500.0 MiB
    Threads:    1
    
  ==> Input File <==

--------------------------------------------------------------------------
import numpy as np
set {scf_type pk
basis cc-pvdz
d_convergence 10
gdma_switch   0
gdma_limit    0
gdma_origin   [ 0.0,  0.0,  0.0 ]
}
molecule test {
    units Angstrom
    0 1
    --
    0 1
    C               -2.471474384460625     0.621914966076221    -1.761062791759752
    C               -0.729474384460625    -0.123085033923779    -0.090062791759752
    C               -1.277474384460625     0.894914966076221    -0.881062791759752
    C                0.336525615539375     0.137914966076221     0.772937208240248
    C               -0.741474384460625     2.186914966076221    -0.782062791759752
    C                0.867525615539375     1.427914966076221     0.854937208240248
    C                0.330525615539375     2.454914966076221     0.081937208240248
    O                1.899525615539375     1.714914966076221     1.694937208240248
    H               -1.143474384460625    -1.121085033923779    -0.142062791759752
    H                0.759525615539375    -0.648085033923779     1.377937208240249
    H               -3.003474384460625     1.556914966076221    -1.932062791759752
    H               -3.148474384460625    -0.012085033923779    -1.186062791759751
    H               -1.160474384460625     2.989914966076221    -1.373062791759752
    H                0.732525615539375     3.454914966076222     0.149937208240248
    H                2.249525615539375     2.584914966076221     1.485937208240248
    H               -2.283665384460625     0.128554966076221    -2.726113791759752
    C                0.486525615539375    -3.518085033923779     0.020937208240248
    C                0.905525615539375    -4.982085033923779    -0.087062791759752
    H                1.186525615539375    -2.958085033923779     0.638937208240248
    H                0.499525615539375    -3.076085033923779    -0.976062791759752
    H               -0.525474384460625    -3.436085033923778     0.420937208240248
    H                1.980525615539375    -5.042085033923778    -0.261062791759752
    H                0.386525615539375    -5.420085033923778    -0.938062791759752
    H                0.629074615539375    -5.517035033923779     0.833482308240248

}
e, wfn = energy('scf', return_wfn=True)
gdma(wfn)
dmavals = variable('DMA DISTRIBUTED MULTIPOLES')
charges = np.array(dmavals)
print(charges)
np.save('SSI-026TYR-062ILE-1-dimer.npy', np.array(charges))--------------------------------------------------------------------------

*** tstart() called on ds3
*** at Mon Apr 27 07:25:55 2020

   => Loading Basis Set <=

    Name: CC-PVDZ
    Role: ORBITAL
    Keyword: BASIS
    atoms 1-7, 17-18  entry C          line   138 file /theoryfs2/ds/metcalf/miniconda2/envs/tf2gpu/share/psi4/basis/cc-pvdz.gbs 
    atoms 8           entry O          line   198 file /theoryfs2/ds/metcalf/miniconda2/envs/tf2gpu/share/psi4/basis/cc-pvdz.gbs 
    atoms 9-16, 19-24 entry H          line    22 file /theoryfs2/ds/metcalf/miniconda2/envs/tf2gpu/share/psi4/basis/cc-pvdz.gbs 


         ---------------------------------------------------------
                                   SCF
               by Justin Turney, Rob Parrish, Andy Simmonett
                          and Daniel G. A. Smith
                              RHF Reference
                        1 Threads,    500 MiB Core
         ---------------------------------------------------------

  ==> Geometry <==

    Molecular point group: c1
    Full point group: C1

    Geometry (in Angstrom), charge = 0, multiplicity = 1:

       Center              X                  Y                   Z               Mass       
    ------------   -----------------  -----------------  -----------------  -----------------
         C           -2.471474384461     0.621914966076    -1.761062791760    12.000000000000
         C           -0.729474384461    -0.123085033924    -0.090062791760    12.000000000000
         C           -1.277474384461     0.894914966076    -0.881062791760    12.000000000000
         C            0.336525615539     0.137914966076     0.772937208240    12.000000000000
         C           -0.741474384461     2.186914966076    -0.782062791760    12.000000000000
         C            0.867525615539     1.427914966076     0.854937208240    12.000000000000
         C            0.330525615539     2.454914966076     0.081937208240    12.000000000000
         O            1.899525615539     1.714914966076     1.694937208240    15.994914619570
         H           -1.143474384461    -1.121085033924    -0.142062791760     1.007825032230
         H            0.759525615539    -0.648085033924     1.377937208240     1.007825032230
         H           -3.003474384461     1.556914966076    -1.932062791760     1.007825032230
         H           -3.148474384461    -0.012085033924    -1.186062791760     1.007825032230
         H           -1.160474384461     2.989914966076    -1.373062791760     1.007825032230
         H            0.732525615539     3.454914966076     0.149937208240     1.007825032230
         H            2.249525615539     2.584914966076     1.485937208240     1.007825032230
         H           -2.283665384461     0.128554966076    -2.726113791760     1.007825032230
         C            0.486525615539    -3.518085033924     0.020937208240    12.000000000000
         C            0.905525615539    -4.982085033924    -0.087062791760    12.000000000000
         H            1.186525615539    -2.958085033924     0.638937208240     1.007825032230
         H            0.499525615539    -3.076085033924    -0.976062791760     1.007825032230
         H           -0.525474384461    -3.436085033924     0.420937208240     1.007825032230
         H            1.980525615539    -5.042085033924    -0.261062791760     1.007825032230
         H            0.386525615539    -5.420085033924    -0.938062791760     1.007825032230
         H            0.629074615539    -5.517035033924     0.833482308240     1.007825032230

  Running in c1 symmetry.

  Rotational constants: A =      0.04707  B =      0.02027  C =      0.01451 [cm^-1]
  Rotational constants: A =   1411.02510  B =    607.68255  C =    434.86974 [MHz]
  Nuclear repulsion =  484.743351093071794

  Charge       = 0
  Multiplicity = 1
  Electrons    = 76
  Nalpha       = 38
  Nbeta        = 38

  ==> Algorithm <==

  SCF Algorithm Type is PK.
  DIIS enabled.
  MOM disabled.
  Fractional occupation disabled.
  Guess Type is SAD.
  Energy threshold   = 1.00e-06
  Density threshold  = 1.00e-10
  Integral threshold = 0.00e+00

  ==> Primary Basis <==

  Basis Set: CC-PVDZ
    Blend: CC-PVDZ
    Number of shells: 102
    Number of basis function: 210
    Number of Cartesian functions: 220
    Spherical Harmonics?: true
    Max angular momentum: 2

  ==> Pre-Iterations <==

   -------------------------------------------------------
    Irrep   Nso     Nmo     Nalpha   Nbeta   Ndocc  Nsocc
   -------------------------------------------------------
     A        210     210       0       0       0       0
   -------------------------------------------------------
    Total     210     210      38      38      38       0
   -------------------------------------------------------

  ==> Integral Setup <==

  Using integral reordering PK algorithm.
  Sizing the integral batches needed.
  Building batch lookup table.
   Calculation information:
      Number of atoms:                  24
      Number of AO shells:             102
      Number of primitives:            290
      Number of atomic orbitals:       220
      Number of basis functions:       210

      Integral cutoff                 1.00e-12
      Number of threads:                 1

	Batch   1 pq = [       0,    9405] index = [             0,44231715] size =     44231715
	Batch   2 pq = [    9405,   13301] index = [      44231715,88464951] size =     44233236
	Batch   3 pq = [   13301,   16290] index = [      88464951,132690195] size =     44225244
	Batch   4 pq = [   16290,   18810] index = [     132690195,176917455] size =     44227260
	Batch   5 pq = [   18810,   21030] index = [     176917455,221140965] size =     44223510
	Batch   6 pq = [   21030,   22155] index = [     221140965,245433090] size =     24292125
  Task number: 23
  Buffer size: 11059200
  Buffer per thread: 2
  We computed 10624178 shell quartets total.
  Whereas there are 13799631 unique shell quartets.

  ==> DiskJK: Disk-Based J/K Matrices <==

    J tasked:                  Yes
    K tasked:                  Yes
    wK tasked:                  No
    Memory [MiB]:              375
    Schwarz Cutoff:          1E-12

    OpenMP threads:              1

  Minimum eigenvalue in the overlap matrix is 3.2879815393E-04.
  Using Symmetric Orthogonalization.

  SCF Guess: Superposition of Atomic Densities via on-the-fly atomic UHF.

  ==> Iterations <==

                        Total Energy        Delta E     RMS |[F,P]|

   @RHF iter SAD:  -422.65666043898034   -4.22657e+02   0.00000e+00 
   @RHF iter   1:  -423.59960244668105   -9.42942e-01   2.97124e-03 DIIS
   @RHF iter   2:  -423.81569658492583   -2.16094e-01   1.24814e-03 DIIS
   @RHF iter   3:  -423.85010661726091   -3.44100e-02   2.84573e-04 DIIS
   @RHF iter   4:  -423.85298570212115   -2.87908e-03   1.17171e-04 DIIS
   @RHF iter   5:  -423.85333906879134   -3.53367e-04   2.08493e-05 DIIS
   @RHF iter   6:  -423.85335697098134   -1.79022e-05   6.47911e-06 DIIS
   @RHF iter   7:  -423.85335872883638   -1.75786e-06   2.19821e-06 DIIS
   @RHF iter   8:  -423.85335900899867   -2.80162e-07   8.63615e-07 DIIS
   @RHF iter   9:  -423.85335906775470   -5.87560e-08   3.88702e-07 DIIS
   @RHF iter  10:  -423.85335908157168   -1.38170e-08   1.71294e-07 DIIS
   @RHF iter  11:  -423.85335908589502   -4.32334e-09   6.75704e-08 DIIS
   @RHF iter  12:  -423.85335908641173   -5.16707e-10   2.89668e-08 DIIS
   @RHF iter  13:  -423.85335908647443   -6.26983e-11   8.36199e-09 DIIS
   @RHF iter  14:  -423.85335908647738   -2.95586e-12   2.39552e-09 DIIS
   @RHF iter  15:  -423.85335908647704    3.41061e-13   9.51106e-10 DIIS
   @RHF iter  16:  -423.85335908647636    6.82121e-13   4.12058e-10 DIIS
   @RHF iter  17:  -423.85335908647960   -3.24007e-12   1.83452e-10 DIIS
   @RHF iter  18:  -423.85335908647852    1.08002e-12   8.45859e-11 DIIS
  Energy and wave function converged.


  ==> Post-Iterations <==

    Orbital Energies [Eh]
    ---------------------

    Doubly Occupied:                                                      

       1A    -20.582663     2A    -11.298906     3A    -11.240310  
       4A    -11.238278     5A    -11.234509     6A    -11.232969  
       7A    -11.230743     8A    -11.227486     9A    -11.217977  
      10A    -11.216728    11A     -1.401711    12A     -1.146118  
      13A     -1.034860    14A     -1.020467    15A     -1.014514  
      16A     -0.924343    17A     -0.843302    18A     -0.837162  
      19A     -0.799983    20A     -0.728953    21A     -0.667451  
      22A     -0.642363    23A     -0.607614    24A     -0.601272  
      25A     -0.598662    26A     -0.586799    27A     -0.585676  
      28A     -0.567913    29A     -0.565924    30A     -0.523965  
      31A     -0.500863    32A     -0.495507    33A     -0.490807  
      34A     -0.485496    35A     -0.479872    36A     -0.464055  
      37A     -0.336195    38A     -0.300484  

    Virtual:                                                              

      39A      0.128763    40A      0.153899    41A      0.178940  
      42A      0.181804    43A      0.194278    44A      0.213770  
      45A      0.221228    46A      0.239421    47A      0.249075  
      48A      0.260300    49A      0.266463    50A      0.277887  
      51A      0.291825    52A      0.293053    53A      0.319289  
      54A      0.340014    55A      0.363502    56A      0.376049  
      57A      0.402681    58A      0.431145    59A      0.458080  
      60A      0.482647    61A      0.504267    62A      0.510175  
      63A      0.595486    64A      0.598404    65A      0.606545  
      66A      0.632017    67A      0.636621    68A      0.652239  
      69A      0.671143    70A      0.672893    71A      0.696139  
      72A      0.704091    73A      0.711264    74A      0.711312  
      75A      0.735986    76A      0.741804    77A      0.761358  
      78A      0.771362    79A      0.776034    80A      0.793423  
      81A      0.804596    82A      0.831749    83A      0.841294  
      84A      0.852373    85A      0.879463    86A      0.884268  
      87A      0.885623    88A      0.890112    89A      0.894551  
      90A      0.898964    91A      0.907734    92A      0.915017  
      93A      0.927792    94A      0.930283    95A      0.934163  
      96A      0.944231    97A      0.954313    98A      0.978109  
      99A      0.998633   100A      1.014332   101A      1.035780  
     102A      1.056416   103A      1.111824   104A      1.118732  
     105A      1.133365   106A      1.142075   107A      1.155373  
     108A      1.177660   109A      1.201466   110A      1.232944  
     111A      1.245319   112A      1.259345   113A      1.281551  
     114A      1.289842   115A      1.305659   116A      1.308314  
     117A      1.325631   118A      1.354243   119A      1.362977  
     120A      1.391089   121A      1.473919   122A      1.486491  
     123A      1.493710   124A      1.504510   125A      1.530986  
     126A      1.544459   127A      1.593188   128A      1.617476  
     129A      1.620121   130A      1.679768   131A      1.692281  
     132A      1.697026   133A      1.703794   134A      1.733347  
     135A      1.749749   136A      1.775828   137A      1.797595  
     138A      1.804386   139A      1.860091   140A      1.867387  
     141A      1.874135   142A      1.883755   143A      1.902444  
     144A      1.910625   145A      1.912880   146A      1.914704  
     147A      1.918713   148A      1.934699   149A      1.937259  
     150A      1.945649   151A      1.953186   152A      1.957993  
     153A      1.964288   154A      1.973616   155A      2.002213  
     156A      2.022835   157A      2.042327   158A      2.052675  
     159A      2.060637   160A      2.068282   161A      2.078387  
     162A      2.127789   163A      2.137429   164A      2.139869  
     165A      2.153332   166A      2.169822   167A      2.211257  
     168A      2.227604   169A      2.260377   170A      2.273355  
     171A      2.305042   172A      2.312842   173A      2.328793  
     174A      2.354175   175A      2.370884   176A      2.423774  
     177A      2.445403   178A      2.452164   179A      2.460603  
     180A      2.483795   181A      2.495520   182A      2.532459  
     183A      2.533856   184A      2.585628   185A      2.588386  
     186A      2.595741   187A      2.639661   188A      2.747394  
     189A      2.771078   190A      2.772314   191A      2.782681  
     192A      2.793383   193A      2.821601   194A      2.835493  
     195A      2.850954   196A      2.858225   197A      2.892838  
     198A      2.944264   199A      2.954932   200A      2.959277  
     201A      2.999175   202A      3.080577   203A      3.105606  
     204A      3.271368   205A      3.274916   206A      3.344308  
     207A      3.579777   208A      3.673510   209A      3.956770  
     210A      4.177741  

    Final Occupation by Irrep:
              A 
    DOCC [    38 ]

  @RHF Final Energy:  -423.85335908647852

   => Energetics <=

    Nuclear Repulsion Energy =            484.7433510930717944
    One-Electron Energy =               -1535.2476242958186958
    Two-Electron Energy =                 626.6509141162683818
    Total Energy =                       -423.8533590864784628

Computation Completed


Properties will be evaluated at   0.000000,   0.000000,   0.000000 [a0]

Properties computed using the SCF density matrix

  Nuclear Dipole Moment: [e a0]
     X:    -2.6545      Y:   -15.4745      Z:    -4.3299

  Electronic Dipole Moment: [e a0]
     X:     2.5634      Y:    15.8747      Z:     3.9597

  Dipole Moment: [e a0]
     X:    -0.0911      Y:     0.4002      Z:    -0.3702     Total:     0.5527

  Dipole Moment: [D]
     X:    -0.2316      Y:     1.0172      Z:    -0.9409     Total:     1.4048


*** tstop() called on ds3 at Mon Apr 27 07:28:01 2020
Module time:
	user time   =      83.67 seconds =       1.39 minutes
	system time =      41.84 seconds =       0.70 minutes
	total time  =        126 seconds =       2.10 minutes
Total time:
	user time   =      83.67 seconds =       1.39 minutes
	system time =      41.84 seconds =       0.70 minutes
	total time  =        126 seconds =       2.10 minutes
                                     G D M A

                                 by Anthony Stone

                           version 2.2.06, 22 June 2011

               Distributed Multipoles from Gaussian wavefunctions


Starting at 7:28:1 on 27 Apr 2020   


Using SCF density matrix from file ./SSI/SSI-026TYR-062ILE-1-dimer.test.9683.fchk


                         Distributed Multipole Analysis

Standard DMA

Positions and radii in angstrom
Multipole moments in atomic units, ea_0^k for rank k

C          x = -2.471474  y =  0.621915  z = -1.761063 angstrom
           Maximum rank =  0   Radius =  0.650 angstrom
                   Q00  =  -0.199280

C          x = -0.729474  y = -0.123085  z = -0.090063 angstrom
           Maximum rank =  0   Radius =  0.650 angstrom
                   Q00  =  -0.019755

C          x = -1.277474  y =  0.894915  z = -0.881063 angstrom
           Maximum rank =  0   Radius =  0.650 angstrom
                   Q00  =  -0.130181

C          x =  0.336526  y =  0.137915  z =  0.772937 angstrom
           Maximum rank =  0   Radius =  0.650 angstrom
                   Q00  =  -0.120115

C          x = -0.741474  y =  2.186915  z = -0.782063 angstrom
           Maximum rank =  0   Radius =  0.650 angstrom
                   Q00  =   0.028527

C          x =  0.867526  y =  1.427915  z =  0.854937 angstrom
           Maximum rank =  0   Radius =  0.650 angstrom
                   Q00  =   0.282026

C          x =  0.330526  y =  2.454915  z =  0.081937 angstrom
           Maximum rank =  0   Radius =  0.650 angstrom
                   Q00  =  -0.181991

O          x =  1.899526  y =  1.714915  z =  1.694937 angstrom
           Maximum rank =  0   Radius =  0.650 angstrom
                   Q00  =  -0.640448

H          x = -1.143474  y = -1.121085  z = -0.142063 angstrom
           Maximum rank =  0   Radius =  0.325 angstrom
                   Q00  =   0.066527

H          x =  0.759526  y = -0.648085  z =  1.377937 angstrom
           Maximum rank =  0   Radius =  0.325 angstrom
                   Q00  =   0.078365

H          x = -3.003474  y =  1.556915  z = -1.932063 angstrom
           Maximum rank =  0   Radius =  0.325 angstrom
                   Q00  =   0.095963

H          x = -3.148474  y = -0.012085  z = -1.186063 angstrom
           Maximum rank =  0   Radius =  0.325 angstrom
                   Q00  =   0.093202

H          x = -1.160474  y =  2.989915  z = -1.373063 angstrom
           Maximum rank =  0   Radius =  0.325 angstrom
                   Q00  =   0.071086

H          x =  0.732526  y =  3.454915  z =  0.149937 angstrom
           Maximum rank =  0   Radius =  0.325 angstrom
                   Q00  =   0.070403

H          x =  2.249526  y =  2.584915  z =  1.485937 angstrom
           Maximum rank =  0   Radius =  0.325 angstrom
                   Q00  =   0.404308

H          x = -2.283665  y =  0.128555  z = -2.726114 angstrom
           Maximum rank =  0   Radius =  0.325 angstrom
                   Q00  =   0.100695

C          x =  0.486526  y = -3.518085  z =  0.020937 angstrom
           Maximum rank =  0   Radius =  0.650 angstrom
                   Q00  =  -0.238877

C          x =  0.905526  y = -4.982085  z = -0.087063 angstrom
           Maximum rank =  0   Radius =  0.650 angstrom
                   Q00  =  -0.234635

H          x =  1.186526  y = -2.958085  z =  0.638937 angstrom
           Maximum rank =  0   Radius =  0.325 angstrom
                   Q00  =   0.082492

H          x =  0.499526  y = -3.076085  z = -0.976063 angstrom
           Maximum rank =  0   Radius =  0.325 angstrom
                   Q00  =   0.077910

H          x = -0.525474  y = -3.436085  z =  0.420937 angstrom
           Maximum rank =  0   Radius =  0.325 angstrom
                   Q00  =   0.074169

H          x =  1.980526  y = -5.042085  z = -0.261063 angstrom
           Maximum rank =  0   Radius =  0.325 angstrom
                   Q00  =   0.082867

H          x =  0.386526  y = -5.420085  z = -0.938063 angstrom
           Maximum rank =  0   Radius =  0.325 angstrom
                   Q00  =   0.077999

H          x =  0.629075  y = -5.517035  z =  0.833482 angstrom
           Maximum rank =  0   Radius =  0.325 angstrom
                   Q00  =   0.078743

Total multipoles referred to origin at
           x =   0.000000,  y =    0.000000,  z =    0.000000 angstrom
                   Q00  =  -0.000000

Finished at 7:28:1 on 27 Apr 2020   

  DMA results are available in the Python driver through the
	  variable('DMA DISTRIBUTED MULTIPOLES')
  and
	  variable('DMA TOTAL MULTIPOLES')
  commands.


    Psi4 stopped on: Monday, 27 April 2020 07:28AM
    Psi4 wall time for execution: 0:02:05.80

*** Psi4 exiting successfully. Buy a developer a beer!
