
    -----------------------------------------------------------------------
          Psi4: An Open-Source Ab Initio Electronic Structure Package
                               Psi4 1.3.2 release

                         Git: Rev {HEAD} ecbda83 


    R. M. Parrish, L. A. Burns, D. G. A. Smith, A. C. Simmonett,
    A. E. DePrince III, E. G. Hohenstein, U. Bozkaya, A. Yu. Sokolov,
    R. Di Remigio, R. M. Richard, J. F. Gonthier, A. M. James,
    H. R. McAlexander, A. Kumar, M. Saitow, X. Wang, B. P. Pritchard,
    P. Verma, H. F. Schaefer III, K. Patkowski, R. A. King, E. F. Valeev,
    F. A. Evangelista, J. M. Turney, T. D. Crawford, and C. D. Sherrill,
    J. Chem. Theory Comput. 13(7) pp 3185--3197 (2017).
    (doi: 10.1021/acs.jctc.7b00174)


                         Additional Contributions by
    P. Kraus, H. Kruse, M. H. Lechner, M. C. Schieber, R. A. Shaw,
    A. Alenaizan, R. Galvelis, Z. L. Glick, S. Lehtola, and J. P. Misiewicz

    -----------------------------------------------------------------------


    Psi4 started on: Monday, 27 April 2020 07:28AM

    Process ID: 14170
    Host:       ds3
    PSIDATADIR: /theoryfs2/ds/metcalf/miniconda2/envs/tf2gpu/share/psi4
    Memory:     500.0 MiB
    Threads:    1
    
  ==> Input File <==

--------------------------------------------------------------------------
import numpy as np
set {scf_type pk
basis cc-pvdz
d_convergence 10
gdma_switch   0
gdma_limit    0
gdma_origin   [ 0.0,  0.0,  0.0 ]
}
molecule test {
    units Angstrom
    1 1
    --
    1 1
    C                0.533390198226780    -0.115575854118054     1.274651395973544
    C                1.851390198226780    -0.804575854118054     1.410651395973544
    N                0.648390198226780     1.361424145881946     1.404651395972544
    H                0.083390198226780    -0.387575854118054     0.318651395972544
    H               -0.130609801773220    -0.456575854118054     2.077651395972544
    H                2.253390198226781    -0.610575854118054     2.407651395972544
    H                2.561390198226781    -0.427575854118054     0.669651395972544
    H                1.257390198226780     1.756424145881946     0.695651395973544
    H               -0.253609801773220     1.817424145881946     1.325651395972544
    H                1.032390198226780     1.622424145881946     2.307651395972544
    H                1.739010198226780    -1.891437854118054     1.283761395973544
    C               -0.857609801773220    -0.616575854118054    -2.264348604026456
    C               -2.229609801773220    -0.020575854118054    -1.934348604027456
    H               -0.541609801773220    -0.345575854118054    -3.271348604026456
    H               -0.106609801773220    -0.225575854118054    -1.583348604027456
    H               -0.887609801773220    -1.704575854118054    -2.186348604027457
    H               -2.093609801773220     1.052424145881946    -1.804348604026456
    H               -2.943539801773219    -0.165482854118054    -2.758548604026456
    H               -2.614899801773220    -0.407303854118054    -0.979368604026456

}
e, wfn = energy('scf', return_wfn=True)
gdma(wfn)
dmavals = variable('DMA DISTRIBUTED MULTIPOLES')
charges = np.array(dmavals)
print(charges)
np.save('SSI-186LYS-191VAL-2-dimer.npy', np.array(charges))--------------------------------------------------------------------------

*** tstart() called on ds3
*** at Mon Apr 27 07:28:45 2020

   => Loading Basis Set <=

    Name: CC-PVDZ
    Role: ORBITAL
    Keyword: BASIS
    atoms 1-2, 12-13  entry C          line   138 file /theoryfs2/ds/metcalf/miniconda2/envs/tf2gpu/share/psi4/basis/cc-pvdz.gbs 
    atoms 3           entry N          line   168 file /theoryfs2/ds/metcalf/miniconda2/envs/tf2gpu/share/psi4/basis/cc-pvdz.gbs 
    atoms 4-11, 14-19 entry H          line    22 file /theoryfs2/ds/metcalf/miniconda2/envs/tf2gpu/share/psi4/basis/cc-pvdz.gbs 


         ---------------------------------------------------------
                                   SCF
               by Justin Turney, Rob Parrish, Andy Simmonett
                          and Daniel G. A. Smith
                              RHF Reference
                        1 Threads,    500 MiB Core
         ---------------------------------------------------------

  ==> Geometry <==

    Molecular point group: c1
    Full point group: C1

    Geometry (in Angstrom), charge = 1, multiplicity = 1:

       Center              X                  Y                   Z               Mass       
    ------------   -----------------  -----------------  -----------------  -----------------
         C            0.533390198227    -0.115575854118     1.274651395974    12.000000000000
         C            1.851390198227    -0.804575854118     1.410651395974    12.000000000000
         N            0.648390198227     1.361424145882     1.404651395973    14.003074004430
         H            0.083390198227    -0.387575854118     0.318651395973     1.007825032230
         H           -0.130609801773    -0.456575854118     2.077651395973     1.007825032230
         H            2.253390198227    -0.610575854118     2.407651395973     1.007825032230
         H            2.561390198227    -0.427575854118     0.669651395973     1.007825032230
         H            1.257390198227     1.756424145882     0.695651395974     1.007825032230
         H           -0.253609801773     1.817424145882     1.325651395973     1.007825032230
         H            1.032390198227     1.622424145882     2.307651395973     1.007825032230
         H            1.739010198227    -1.891437854118     1.283761395974     1.007825032230
         C           -0.857609801773    -0.616575854118    -2.264348604026    12.000000000000
         C           -2.229609801773    -0.020575854118    -1.934348604027    12.000000000000
         H           -0.541609801773    -0.345575854118    -3.271348604026     1.007825032230
         H           -0.106609801773    -0.225575854118    -1.583348604027     1.007825032230
         H           -0.887609801773    -1.704575854118    -2.186348604027     1.007825032230
         H           -2.093609801773     1.052424145882    -1.804348604026     1.007825032230
         H           -2.943539801773    -0.165482854118    -2.758548604026     1.007825032230
         H           -2.614899801773    -0.407303854118    -0.979368604026     1.007825032230

  Running in c1 symmetry.

  Rotational constants: A =      0.19867  B =      0.04507  C =      0.03973 [cm^-1]
  Rotational constants: A =   5956.10815  B =   1351.19415  C =   1191.12942 [MHz]
  Nuclear repulsion =  190.344300336733909

  Charge       = 1
  Multiplicity = 1
  Electrons    = 44
  Nalpha       = 22
  Nbeta        = 22

  ==> Algorithm <==

  SCF Algorithm Type is PK.
  DIIS enabled.
  MOM disabled.
  Fractional occupation disabled.
  Guess Type is SAD.
  Energy threshold   = 1.00e-06
  Density threshold  = 1.00e-10
  Integral threshold = 0.00e+00

  ==> Primary Basis <==

  Basis Set: CC-PVDZ
    Blend: CC-PVDZ
    Number of shells: 72
    Number of basis function: 140
    Number of Cartesian functions: 145
    Spherical Harmonics?: true
    Max angular momentum: 2

  ==> Pre-Iterations <==

   -------------------------------------------------------
    Irrep   Nso     Nmo     Nalpha   Nbeta   Ndocc  Nsocc
   -------------------------------------------------------
     A        140     140       0       0       0       0
   -------------------------------------------------------
    Total     140     140      22      22      22       0
   -------------------------------------------------------

  ==> Integral Setup <==

  Using integral reordering PK algorithm.
  Sizing the integral batches needed.
  Building batch lookup table.
   Calculation information:
      Number of atoms:                  19
      Number of AO shells:              72
      Number of primitives:            180
      Number of atomic orbitals:       145
      Number of basis functions:       140

      Integral cutoff                 1.00e-12
      Number of threads:                 1

	Batch   1 pq = [       0,    9405] index = [             0,44231715] size =     44231715
	Batch   2 pq = [    9405,    9870] index = [      44231715,48713385] size =      4481670
  Task number: 5
  Buffer size: 11059200
  Buffer per thread: 2
  We computed 2954240 shell quartets total.
  Whereas there are 3454506 unique shell quartets.

  ==> DiskJK: Disk-Based J/K Matrices <==

    J tasked:                  Yes
    K tasked:                  Yes
    wK tasked:                  No
    Memory [MiB]:              375
    Schwarz Cutoff:          1E-12

    OpenMP threads:              1

  Minimum eigenvalue in the overlap matrix is 5.2213929723E-03.
  Using Symmetric Orthogonalization.

  SCF Guess: Superposition of Atomic Densities via on-the-fly atomic UHF.

  ==> Iterations <==

                        Total Energy        Delta E     RMS |[F,P]|

   @RHF iter SAD:  -213.24713145949954   -2.13247e+02   0.00000e+00 
   @RHF iter   1:  -213.68854609080776   -4.41415e-01   3.57057e-03 DIIS
   @RHF iter   2:  -213.83975909161859   -1.51213e-01   1.34605e-03 DIIS
   @RHF iter   3:  -213.85972570136090   -1.99666e-02   3.42308e-04 DIIS
   @RHF iter   4:  -213.86185947767379   -2.13378e-03   4.67579e-05 DIIS
   @RHF iter   5:  -213.86190321664577   -4.37390e-05   1.26871e-05 DIIS
   @RHF iter   6:  -213.86190589088903   -2.67424e-06   3.52137e-06 DIIS
   @RHF iter   7:  -213.86190607816400   -1.87275e-07   8.79410e-07 DIIS
   @RHF iter   8:  -213.86190609522060   -1.70566e-08   2.56266e-07 DIIS
   @RHF iter   9:  -213.86190609637438   -1.15378e-09   6.91155e-08 DIIS
   @RHF iter  10:  -213.86190609645459   -8.02061e-11   1.22713e-08 DIIS
   @RHF iter  11:  -213.86190609645786   -3.26850e-12   2.39377e-09 DIIS
   @RHF iter  12:  -213.86190609645894   -1.08002e-12   5.57182e-10 DIIS
   @RHF iter  13:  -213.86190609645786    1.08002e-12   1.71600e-10 DIIS
   @RHF iter  14:  -213.86190609645760    2.55795e-13   4.62173e-11 DIIS
  Energy and wave function converged.


  ==> Post-Iterations <==

    Orbital Energies [Eh]
    ---------------------

    Doubly Occupied:                                                      

       1A    -15.907605     2A    -11.479480     3A    -11.405630  
       4A    -11.336398     5A    -11.333291     6A     -1.528131  
       7A     -1.230184     8A     -1.135022     9A     -1.058350  
      10A     -0.983496    11A     -0.971024    12A     -0.955125  
      13A     -0.865108    14A     -0.804157    15A     -0.730327  
      16A     -0.719554    17A     -0.712138    18A     -0.703074  
      19A     -0.683442    20A     -0.618351    21A     -0.603945  
      22A     -0.598336  

    Virtual:                                                              

      23A     -0.054400    24A      0.011073    25A      0.013193  
      26A      0.033108    27A      0.078246    28A      0.083334  
      29A      0.103728    30A      0.119794    31A      0.122144  
      32A      0.133905    33A      0.145009    34A      0.153136  
      35A      0.161301    36A      0.187893    37A      0.210569  
      38A      0.229771    39A      0.282932    40A      0.372733  
      41A      0.403799    42A      0.419697    43A      0.431176  
      44A      0.451166    45A      0.482830    46A      0.494704  
      47A      0.527301    48A      0.564074    49A      0.589664  
      50A      0.598085    51A      0.636150    52A      0.654247  
      53A      0.678287    54A      0.682848    55A      0.708358  
      56A      0.711796    57A      0.733793    58A      0.740328  
      59A      0.768479    60A      0.775579    61A      0.782362  
      62A      0.789100    63A      0.790290    64A      0.795915  
      65A      0.827952    66A      0.836182    67A      0.862572  
      68A      0.902402    69A      0.925728    70A      0.935597  
      71A      0.998176    72A      1.009024    73A      1.112666  
      74A      1.144016    75A      1.194492    76A      1.266265  
      77A      1.302227    78A      1.352730    79A      1.365051  
      80A      1.391747    81A      1.448618    82A      1.462083  
      83A      1.470217    84A      1.508293    85A      1.569532  
      86A      1.575342    87A      1.587737    88A      1.664194  
      89A      1.680021    90A      1.719621    91A      1.735303  
      92A      1.750001    93A      1.756848    94A      1.768939  
      95A      1.779272    96A      1.787996    97A      1.801402  
      98A      1.816228    99A      1.819340   100A      1.830680  
     101A      1.842185   102A      1.858003   103A      1.865447  
     104A      1.878183   105A      1.891059   106A      1.922013  
     107A      1.957155   108A      1.980275   109A      2.004305  
     110A      2.026160   111A      2.036693   112A      2.129296  
     113A      2.154456   114A      2.176272   115A      2.189583  
     116A      2.197701   117A      2.286991   118A      2.321345  
     119A      2.326630   120A      2.339838   121A      2.377488  
     122A      2.432722   123A      2.443902   124A      2.489405  
     125A      2.524641   126A      2.548482   127A      2.588969  
     128A      2.630253   129A      2.649929   130A      2.665533  
     131A      2.674122   132A      2.731085   133A      2.739836  
     134A      2.753735   135A      2.790684   136A      2.830461  
     137A      2.852158   138A      2.890138   139A      3.105870  
     140A      3.132321  

    Final Occupation by Irrep:
              A 
    DOCC [    22 ]

  @RHF Final Energy:  -213.86190609645760

   => Energetics <=

    Nuclear Repulsion Energy =            190.3443003367339088
    One-Electron Energy =                -655.6880737312162637
    Two-Electron Energy =                 251.4818672980247527
    Total Energy =                       -213.8619060964576022

Computation Completed


Properties will be evaluated at   0.000000,   0.000000,   0.000000 [a0]

Properties computed using the SCF density matrix

  Nuclear Dipole Moment: [e a0]
     X:    -0.6067      Y:    -0.3542      Z:    -1.4075

  Electronic Dipole Moment: [e a0]
     X:     1.8170      Y:     2.1685      Z:     3.7647

  Dipole Moment: [e a0]
     X:     1.2103      Y:     1.8143      Z:     2.3572     Total:     3.2114

  Dipole Moment: [D]
     X:     3.0763      Y:     4.6116      Z:     5.9915     Total:     8.1626


*** tstop() called on ds3 at Mon Apr 27 07:29:09 2020
Module time:
	user time   =      17.01 seconds =       0.28 minutes
	system time =       7.79 seconds =       0.13 minutes
	total time  =         24 seconds =       0.40 minutes
Total time:
	user time   =      17.01 seconds =       0.28 minutes
	system time =       7.79 seconds =       0.13 minutes
	total time  =         24 seconds =       0.40 minutes
                                     G D M A

                                 by Anthony Stone

                           version 2.2.06, 22 June 2011

               Distributed Multipoles from Gaussian wavefunctions


Starting at 7:29:9 on 27 Apr 2020   


Using SCF density matrix from file ./SSI/SSI-186LYS-191VAL-2-dimer.test.14170.fchk


                         Distributed Multipole Analysis

Standard DMA

Positions and radii in angstrom
Multipole moments in atomic units, ea_0^k for rank k

C          x =  0.533390  y = -0.115576  z =  1.274651 angstrom
           Maximum rank =  0   Radius =  0.650 angstrom
                   Q00  =  -0.039172

C          x =  1.851390  y = -0.804576  z =  1.410651 angstrom
           Maximum rank =  0   Radius =  0.650 angstrom
                   Q00  =  -0.219618

N          x =  0.648390  y =  1.361424  z =  1.404651 angstrom
           Maximum rank =  0   Radius =  0.650 angstrom
                   Q00  =  -0.146521

H          x =  0.083390  y = -0.387576  z =  0.318651 angstrom
           Maximum rank =  0   Radius =  0.325 angstrom
                   Q00  =   0.152620

H          x = -0.130610  y = -0.456576  z =  2.077651 angstrom
           Maximum rank =  0   Radius =  0.325 angstrom
                   Q00  =   0.122809

H          x =  2.253390  y = -0.610576  z =  2.407651 angstrom
           Maximum rank =  0   Radius =  0.325 angstrom
                   Q00  =   0.102807

H          x =  2.561390  y = -0.427576  z =  0.669651 angstrom
           Maximum rank =  0   Radius =  0.325 angstrom
                   Q00  =   0.101958

H          x =  1.257390  y =  1.756424  z =  0.695651 angstrom
           Maximum rank =  0   Radius =  0.325 angstrom
                   Q00  =   0.256458

H          x = -0.253610  y =  1.817424  z =  1.325651 angstrom
           Maximum rank =  0   Radius =  0.325 angstrom
                   Q00  =   0.261285

H          x =  1.032390  y =  1.622424  z =  2.307651 angstrom
           Maximum rank =  0   Radius =  0.325 angstrom
                   Q00  =   0.256254

H          x =  1.739010  y = -1.891438  z =  1.283761 angstrom
           Maximum rank =  0   Radius =  0.325 angstrom
                   Q00  =   0.155997

C          x = -0.857610  y = -0.616576  z = -2.264349 angstrom
           Maximum rank =  0   Radius =  0.650 angstrom
                   Q00  =  -0.246018

C          x = -2.229610  y = -0.020576  z = -1.934349 angstrom
           Maximum rank =  0   Radius =  0.650 angstrom
                   Q00  =  -0.233827

H          x = -0.541610  y = -0.345576  z = -3.271349 angstrom
           Maximum rank =  0   Radius =  0.325 angstrom
                   Q00  =   0.111055

H          x = -0.106610  y = -0.225576  z = -1.583349 angstrom
           Maximum rank =  0   Radius =  0.325 angstrom
                   Q00  =   0.016457

H          x = -0.887610  y = -1.704576  z = -2.186349 angstrom
           Maximum rank =  0   Radius =  0.325 angstrom
                   Q00  =   0.097362

H          x = -2.093610  y =  1.052424  z = -1.804349 angstrom
           Maximum rank =  0   Radius =  0.325 angstrom
                   Q00  =   0.059224

H          x = -2.943540  y = -0.165483  z = -2.758549 angstrom
           Maximum rank =  0   Radius =  0.325 angstrom
                   Q00  =   0.121146

H          x = -2.614900  y = -0.407304  z = -0.979369 angstrom
           Maximum rank =  0   Radius =  0.325 angstrom
                   Q00  =   0.069723

Total multipoles referred to origin at
           x =   0.000000,  y =    0.000000,  z =    0.000000 angstrom
                   Q00  =   1.000000

Finished at 7:29:9 on 27 Apr 2020   

  DMA results are available in the Python driver through the
	  variable('DMA DISTRIBUTED MULTIPOLES')
  and
	  variable('DMA TOTAL MULTIPOLES')
  commands.


    Psi4 stopped on: Monday, 27 April 2020 07:29AM
    Psi4 wall time for execution: 0:00:23.89

*** Psi4 exiting successfully. Buy a developer a beer!
