
    -----------------------------------------------------------------------
          Psi4: An Open-Source Ab Initio Electronic Structure Package
                               Psi4 1.3.2 release

                         Git: Rev {HEAD} ecbda83 


    R. M. Parrish, L. A. Burns, D. G. A. Smith, A. C. Simmonett,
    A. E. DePrince III, E. G. Hohenstein, U. Bozkaya, A. Yu. Sokolov,
    R. Di Remigio, R. M. Richard, J. F. Gonthier, A. M. James,
    H. R. McAlexander, A. Kumar, M. Saitow, X. Wang, B. P. Pritchard,
    P. Verma, H. F. Schaefer III, K. Patkowski, R. A. King, E. F. Valeev,
    F. A. Evangelista, J. M. Turney, T. D. Crawford, and C. D. Sherrill,
    J. Chem. Theory Comput. 13(7) pp 3185--3197 (2017).
    (doi: 10.1021/acs.jctc.7b00174)


                         Additional Contributions by
    P. Kraus, H. Kruse, M. H. Lechner, M. C. Schieber, R. A. Shaw,
    A. Alenaizan, R. Galvelis, Z. L. Glick, S. Lehtola, and J. P. Misiewicz

    -----------------------------------------------------------------------


    Psi4 started on: Monday, 27 April 2020 08:03AM

    Process ID: 539
    Host:       ds3
    PSIDATADIR: /theoryfs2/ds/metcalf/miniconda2/envs/tf2gpu/share/psi4
    Memory:     500.0 MiB
    Threads:    1
    
  ==> Input File <==

--------------------------------------------------------------------------
import numpy as np
set {scf_type pk
basis cc-pvdz
d_convergence 10
gdma_switch   0
gdma_limit    0
gdma_origin   [ 0.0,  0.0,  0.0 ]
}
molecule test {
    units Angstrom
    0 1
    --
    0 1
    C               -1.824988412881215    -0.770211598661146    -4.028831350201249
    C               -1.393988412881215    -0.694211598661146    -5.490831350201248
    H               -2.766988412881214    -1.307211598661145    -3.936831350201249
    H               -1.066988412881215    -1.313211598661145    -3.468831350201249
    H               -1.925988412881214     0.227788401338854    -3.611831350201249
    H               -1.301988412881214    -1.711211598661146    -5.870831350201248
    H               -2.120949412881215    -0.144856598661146    -6.107061350201248
    H               -0.411442412881214    -0.206191598661146    -5.571081350201248
    C                0.574011587118786    -0.736211598661145    -1.188831350201249
    C                1.973011587118786    -1.329211598661145    -1.353831350201249
    C                0.362011587118786    -0.156211598661146     0.193168649798751
    C                0.518011587118786    -0.953211598661146     1.329168649798751
    C                0.025011587118786     1.184788401338854     0.360168649798751
    C                0.336011587118786    -0.425211598661146     2.603168649798751
    C               -0.155988412881214     1.721788401338854     1.631168649798751
    C               -0.003988412881214     0.915788401338854     2.750168649798751
    O               -0.189988412881214     1.446788401338854     3.990168649798751
    H                0.411011587118786     0.030788401338854    -1.946831350201249
    H               -0.162988412881214    -1.527211598661146    -1.332831350201249
    H                2.084011587118786    -2.059211598661146    -0.554831350201249
    H                0.759011587118786    -2.004211598661145     1.225168649798751
    H               -0.119988412881214     1.808788401338854    -0.505831350201249
    H                0.456011587118786    -1.064211598661146     3.465168649798751
    H               -0.414988412881214     2.758788401338855     1.761168649798751
    H               -0.103988412881214     0.795788401338854     4.683168649798752
    H                2.742287587118786    -0.553889598661146    -1.223101350201249
    H                2.087946587118786    -1.902442598661146    -2.285601350201249

}
e, wfn = energy('scf', return_wfn=True)
gdma(wfn)
dmavals = variable('DMA DISTRIBUTED MULTIPOLES')
charges = np.array(dmavals)
print(charges)
np.save('SSI-006LEU-319TYR-1-dimer.npy', np.array(charges))--------------------------------------------------------------------------

*** tstart() called on ds3
*** at Mon Apr 27 08:03:44 2020

   => Loading Basis Set <=

    Name: CC-PVDZ
    Role: ORBITAL
    Keyword: BASIS
    atoms 1-2, 9-16  entry C          line   138 file /theoryfs2/ds/metcalf/miniconda2/envs/tf2gpu/share/psi4/basis/cc-pvdz.gbs 
    atoms 3-8, 18-27 entry H          line    22 file /theoryfs2/ds/metcalf/miniconda2/envs/tf2gpu/share/psi4/basis/cc-pvdz.gbs 
    atoms 17         entry O          line   198 file /theoryfs2/ds/metcalf/miniconda2/envs/tf2gpu/share/psi4/basis/cc-pvdz.gbs 


         ---------------------------------------------------------
                                   SCF
               by Justin Turney, Rob Parrish, Andy Simmonett
                          and Daniel G. A. Smith
                              RHF Reference
                        1 Threads,    500 MiB Core
         ---------------------------------------------------------

  ==> Geometry <==

    Molecular point group: c1
    Full point group: C1

    Geometry (in Angstrom), charge = 0, multiplicity = 1:

       Center              X                  Y                   Z               Mass       
    ------------   -----------------  -----------------  -----------------  -----------------
         C           -1.824988412881    -0.770211598661    -4.028831350201    12.000000000000
         C           -1.393988412881    -0.694211598661    -5.490831350201    12.000000000000
         H           -2.766988412881    -1.307211598661    -3.936831350201     1.007825032230
         H           -1.066988412881    -1.313211598661    -3.468831350201     1.007825032230
         H           -1.925988412881     0.227788401339    -3.611831350201     1.007825032230
         H           -1.301988412881    -1.711211598661    -5.870831350201     1.007825032230
         H           -2.120949412881    -0.144856598661    -6.107061350201     1.007825032230
         H           -0.411442412881    -0.206191598661    -5.571081350201     1.007825032230
         C            0.574011587119    -0.736211598661    -1.188831350201    12.000000000000
         C            1.973011587119    -1.329211598661    -1.353831350201    12.000000000000
         C            0.362011587119    -0.156211598661     0.193168649799    12.000000000000
         C            0.518011587119    -0.953211598661     1.329168649799    12.000000000000
         C            0.025011587119     1.184788401339     0.360168649799    12.000000000000
         C            0.336011587119    -0.425211598661     2.603168649799    12.000000000000
         C           -0.155988412881     1.721788401339     1.631168649799    12.000000000000
         C           -0.003988412881     0.915788401339     2.750168649799    12.000000000000
         O           -0.189988412881     1.446788401339     3.990168649799    15.994914619570
         H            0.411011587119     0.030788401339    -1.946831350201     1.007825032230
         H           -0.162988412881    -1.527211598661    -1.332831350201     1.007825032230
         H            2.084011587119    -2.059211598661    -0.554831350201     1.007825032230
         H            0.759011587119    -2.004211598661     1.225168649799     1.007825032230
         H           -0.119988412881     1.808788401339    -0.505831350201     1.007825032230
         H            0.456011587119    -1.064211598661     3.465168649799     1.007825032230
         H           -0.414988412881     2.758788401339     1.761168649799     1.007825032230
         H           -0.103988412881     0.795788401339     4.683168649799     1.007825032230
         H            2.742287587119    -0.553889598661    -1.223101350201     1.007825032230
         H            2.087946587119    -1.902442598661    -2.285601350201     1.007825032230

  Running in c1 symmetry.

  Rotational constants: A =      0.06724  B =      0.01188  C =      0.01080 [cm^-1]
  Rotational constants: A =   2015.68479  B =    356.16675  C =    323.86576 [MHz]
  Nuclear repulsion =  566.051023944128815

  Charge       = 0
  Multiplicity = 1
  Electrons    = 84
  Nalpha       = 42
  Nbeta        = 42

  ==> Algorithm <==

  SCF Algorithm Type is PK.
  DIIS enabled.
  MOM disabled.
  Fractional occupation disabled.
  Guess Type is SAD.
  Energy threshold   = 1.00e-06
  Density threshold  = 1.00e-10
  Integral threshold = 0.00e+00

  ==> Primary Basis <==

  Basis Set: CC-PVDZ
    Blend: CC-PVDZ
    Number of shells: 114
    Number of basis function: 234
    Number of Cartesian functions: 245
    Spherical Harmonics?: true
    Max angular momentum: 2

  ==> Pre-Iterations <==

   -------------------------------------------------------
    Irrep   Nso     Nmo     Nalpha   Nbeta   Ndocc  Nsocc
   -------------------------------------------------------
     A        234     234       0       0       0       0
   -------------------------------------------------------
    Total     234     234      42      42      42       0
   -------------------------------------------------------

  ==> Integral Setup <==

  Using integral reordering PK algorithm.
  Sizing the integral batches needed.
  Building batch lookup table.
   Calculation information:
      Number of atoms:                  27
      Number of AO shells:             114
      Number of primitives:            322
      Number of atomic orbitals:       245
      Number of basis functions:       234

      Integral cutoff                 1.00e-12
      Number of threads:                 1

	Batch   1 pq = [       0,    9405] index = [             0,44231715] size =     44231715
	Batch   2 pq = [    9405,   13301] index = [      44231715,88464951] size =     44233236
	Batch   3 pq = [   13301,   16290] index = [      88464951,132690195] size =     44225244
	Batch   4 pq = [   16290,   18810] index = [     132690195,176917455] size =     44227260
	Batch   5 pq = [   18810,   21030] index = [     176917455,221140965] size =     44223510
	Batch   6 pq = [   21030,   23037] index = [     221140965,265363203] size =     44222238
	Batch   7 pq = [   23037,   24883] index = [     265363203,309594286] size =     44231083
	Batch   8 pq = [   24883,   26601] index = [     309594286,353819901] size =     44225615
	Batch   9 pq = [   26601,   27495] index = [     353819901,378001260] size =     24181359
  Task number: 35
  Buffer size: 11059200
  Buffer per thread: 2
  We computed 17499469 shell quartets total.
  Whereas there are 21487290 unique shell quartets.

  ==> DiskJK: Disk-Based J/K Matrices <==

    J tasked:                  Yes
    K tasked:                  Yes
    wK tasked:                  No
    Memory [MiB]:              375
    Schwarz Cutoff:          1E-12

    OpenMP threads:              1

  Minimum eigenvalue in the overlap matrix is 3.1901781628E-04.
  Using Symmetric Orthogonalization.

  SCF Guess: Superposition of Atomic Densities via on-the-fly atomic UHF.

  ==> Iterations <==

                        Total Energy        Delta E     RMS |[F,P]|

   @RHF iter SAD:  -461.73814989766743   -4.61738e+02   0.00000e+00 
   @RHF iter   1:  -462.60767358301905   -8.69524e-01   2.81159e-03 DIIS
   @RHF iter   2:  -462.84807622588949   -2.40403e-01   1.19079e-03 DIIS
   @RHF iter   3:  -462.88737106904262   -3.92948e-02   2.71805e-04 DIIS
   @RHF iter   4:  -462.89062960673721   -3.25854e-03   1.13633e-04 DIIS
   @RHF iter   5:  -462.89104053477291   -4.10928e-04   1.94284e-05 DIIS
   @RHF iter   6:  -462.89105988693586   -1.93522e-05   5.38146e-06 DIIS
   @RHF iter   7:  -462.89106131351741   -1.42658e-06   1.90848e-06 DIIS
   @RHF iter   8:  -462.89106150737882   -1.93861e-07   6.61054e-07 DIIS
   @RHF iter   9:  -462.89106153544913   -2.80703e-08   2.12558e-07 DIIS
   @RHF iter  10:  -462.89106153879277   -3.34364e-09   8.35446e-08 DIIS
   @RHF iter  11:  -462.89106153954663   -7.53857e-10   3.87758e-08 DIIS
   @RHF iter  12:  -462.89106153974905   -2.02419e-10   2.11725e-08 DIIS
   @RHF iter  13:  -462.89106153981129   -6.22435e-11   7.66802e-09 DIIS
   @RHF iter  14:  -462.89106153981470   -3.41061e-12   1.92193e-09 DIIS
   @RHF iter  15:  -462.89106153981618   -1.47793e-12   5.89742e-10 DIIS
   @RHF iter  16:  -462.89106153981828   -2.10321e-12   1.89405e-10 DIIS
   @RHF iter  17:  -462.89106153981788    3.97904e-13   6.62649e-11 DIIS
  Energy and wave function converged.


  ==> Post-Iterations <==

    Orbital Energies [Eh]
    ---------------------

    Doubly Occupied:                                                      

       1A    -20.581385     2A    -11.298146     3A    -11.238724  
       4A    -11.236484     5A    -11.233017     6A    -11.230260  
       7A    -11.227856     8A    -11.227572     9A    -11.221727  
      10A    -11.219414    11A    -11.215769    12A     -1.400926  
      13A     -1.152327    14A     -1.058876    15A     -1.019595  
      16A     -1.018065    17A     -0.975892    18A     -0.860531  
      19A     -0.845009    20A     -0.837498    21A     -0.790689  
      22A     -0.733889    23A     -0.672717    24A     -0.643863  
      25A     -0.614022    26A     -0.600580    27A     -0.599267  
      28A     -0.597288    29A     -0.585689    30A     -0.583867  
      31A     -0.575491    32A     -0.539022    33A     -0.518280  
      34A     -0.501636    35A     -0.499845    36A     -0.487784  
      37A     -0.487034    38A     -0.473993    39A     -0.473251  
      40A     -0.462820    41A     -0.338427    42A     -0.300823  

    Virtual:                                                              

      43A      0.130938    44A      0.154388    45A      0.172788  
      46A      0.181370    47A      0.195848    48A      0.202852  
      49A      0.221585    50A      0.227724    51A      0.237916  
      52A      0.249214    53A      0.258064    54A      0.266381  
      55A      0.270128    56A      0.281929    57A      0.290017  
      58A      0.312676    59A      0.324443    60A      0.328157  
      61A      0.359097    62A      0.394548    63A      0.405618  
      64A      0.410502    65A      0.428496    66A      0.488318  
      67A      0.490319    68A      0.501822    69A      0.525523  
      70A      0.572466    71A      0.599867    72A      0.606692  
      73A      0.607899    74A      0.619468    75A      0.635549  
      76A      0.651391    77A      0.657696    78A      0.668610  
      79A      0.681089    80A      0.694595    81A      0.711055  
      82A      0.719316    83A      0.729617    84A      0.736036  
      85A      0.744828    86A      0.765755    87A      0.792921  
      88A      0.803476    89A      0.807653    90A      0.820618  
      91A      0.839184    92A      0.852951    93A      0.861514  
      94A      0.872971    95A      0.880304    96A      0.888112  
      97A      0.889947    98A      0.894169    99A      0.896259  
     100A      0.899295   101A      0.908719   102A      0.911771  
     103A      0.916960   104A      0.921543   105A      0.935214  
     106A      0.946130   107A      0.958049   108A      0.971361  
     109A      0.975616   110A      0.996654   111A      1.002101  
     112A      1.025034   113A      1.052283   114A      1.092392  
     115A      1.123704   116A      1.128139   117A      1.137762  
     118A      1.151270   119A      1.157921   120A      1.175915  
     121A      1.204521   122A      1.232520   123A      1.246778  
     124A      1.249981   125A      1.267070   126A      1.286127  
     127A      1.295116   128A      1.307651   129A      1.313082  
     130A      1.347561   131A      1.364512   132A      1.384071  
     133A      1.409756   134A      1.459671   135A      1.471167  
     136A      1.484666   137A      1.489979   138A      1.508662  
     139A      1.541615   140A      1.587130   141A      1.595848  
     142A      1.621539   143A      1.632782   144A      1.663723  
     145A      1.685375   146A      1.687436   147A      1.720571  
     148A      1.734370   149A      1.747868   150A      1.777730  
     151A      1.798995   152A      1.823108   153A      1.839463  
     154A      1.863358   155A      1.873919   156A      1.885117  
     157A      1.886304   158A      1.888893   159A      1.899256  
     160A      1.903148   161A      1.909975   162A      1.927832  
     163A      1.941110   164A      1.944837   165A      1.950639  
     166A      1.950841   167A      1.953537   168A      1.959066  
     169A      1.965575   170A      1.969758   171A      1.982721  
     172A      2.005007   173A      2.011786   174A      2.025053  
     175A      2.033152   176A      2.054131   177A      2.067199  
     178A      2.073296   179A      2.080806   180A      2.098885  
     181A      2.104442   182A      2.114174   183A      2.125638  
     184A      2.157436   185A      2.192469   186A      2.201120  
     187A      2.237836   188A      2.256870   189A      2.274439  
     190A      2.297672   191A      2.302161   192A      2.310653  
     193A      2.315898   194A      2.350602   195A      2.368631  
     196A      2.425858   197A      2.454150   198A      2.463766  
     199A      2.472909   200A      2.478325   201A      2.486280  
     202A      2.528007   203A      2.544952   204A      2.550387  
     205A      2.563949   206A      2.577271   207A      2.599928  
     208A      2.641176   209A      2.652997   210A      2.751898  
     211A      2.759676   212A      2.766090   213A      2.788216  
     214A      2.803996   215A      2.817356   216A      2.855513  
     217A      2.857817   218A      2.864010   219A      2.884337  
     220A      2.901626   221A      2.951271   222A      2.966072  
     223A      2.977370   224A      2.983962   225A      3.032431  
     226A      3.101122   227A      3.174269   228A      3.251644  
     229A      3.290513   230A      3.355224   231A      3.575788  
     232A      3.680726   233A      3.982493   234A      4.206423  

    Final Occupation by Irrep:
              A 
    DOCC [    42 ]

  @RHF Final Energy:  -462.89106153981788

   => Energetics <=

    Nuclear Repulsion Energy =            566.0510239441288149
    One-Electron Energy =               -1749.5254699768215687
    Two-Electron Energy =                 720.5833844928749841
    Total Energy =                       -462.8910615398178834

Computation Completed


Properties will be evaluated at   0.000000,   0.000000,   0.000000 [a0]

Properties computed using the SCF density matrix

  Nuclear Dipole Moment: [e a0]
     X:    -1.7409      Y:    -7.6540      Z:   -23.6808

  Electronic Dipole Moment: [e a0]
     X:     1.8300      Y:     7.0747      Z:    23.7729

  Dipole Moment: [e a0]
     X:     0.0891      Y:    -0.5792      Z:     0.0921     Total:     0.5932

  Dipole Moment: [D]
     X:     0.2265      Y:    -1.4723      Z:     0.2342     Total:     1.5079


*** tstop() called on ds3 at Mon Apr 27 08:09:12 2020
Module time:
	user time   =     129.37 seconds =       2.16 minutes
	system time =      51.60 seconds =       0.86 minutes
	total time  =        328 seconds =       5.47 minutes
Total time:
	user time   =     129.37 seconds =       2.16 minutes
	system time =      51.60 seconds =       0.86 minutes
	total time  =        328 seconds =       5.47 minutes
                                     G D M A

                                 by Anthony Stone

                           version 2.2.06, 22 June 2011

               Distributed Multipoles from Gaussian wavefunctions


Starting at 8:9:12 on 27 Apr 2020   


Using SCF density matrix from file ./SSI/SSI-006LEU-319TYR-1-dimer.test.539.fchk


                         Distributed Multipole Analysis

Standard DMA

Positions and radii in angstrom
Multipole moments in atomic units, ea_0^k for rank k

C          x = -1.824988  y = -0.770212  z = -4.028831 angstrom
           Maximum rank =  0   Radius =  0.650 angstrom
                   Q00  =  -0.244546

C          x = -1.393988  y = -0.694212  z = -5.490831 angstrom
           Maximum rank =  0   Radius =  0.650 angstrom
                   Q00  =  -0.229696

H          x = -2.766988  y = -1.307212  z = -3.936831 angstrom
           Maximum rank =  0   Radius =  0.325 angstrom
                   Q00  =   0.080171

H          x = -1.066988  y = -1.313212  z = -3.468831 angstrom
           Maximum rank =  0   Radius =  0.325 angstrom
                   Q00  =   0.080603

H          x = -1.925988  y =  0.227788  z = -3.611831 angstrom
           Maximum rank =  0   Radius =  0.325 angstrom
                   Q00  =   0.078443

H          x = -1.301988  y = -1.711212  z = -5.870831 angstrom
           Maximum rank =  0   Radius =  0.325 angstrom
                   Q00  =   0.077260

H          x = -2.120949  y = -0.144857  z = -6.107061 angstrom
           Maximum rank =  0   Radius =  0.325 angstrom
                   Q00  =   0.080052

H          x = -0.411442  y = -0.206192  z = -5.571081 angstrom
           Maximum rank =  0   Radius =  0.325 angstrom
                   Q00  =   0.076221

C          x =  0.574012  y = -0.736212  z = -1.188831 angstrom
           Maximum rank =  0   Radius =  0.650 angstrom
                   Q00  =  -0.034247

C          x =  1.973012  y = -1.329212  z = -1.353831 angstrom
           Maximum rank =  0   Radius =  0.650 angstrom
                   Q00  =  -0.239133

C          x =  0.362012  y = -0.156212  z =  0.193169 angstrom
           Maximum rank =  0   Radius =  0.650 angstrom
                   Q00  =  -0.131002

C          x =  0.518012  y = -0.953212  z =  1.329169 angstrom
           Maximum rank =  0   Radius =  0.650 angstrom
                   Q00  =  -0.041221

C          x =  0.025012  y =  1.184788  z =  0.360169 angstrom
           Maximum rank =  0   Radius =  0.650 angstrom
                   Q00  =   0.039074

C          x =  0.336012  y = -0.425212  z =  2.603169 angstrom
           Maximum rank =  0   Radius =  0.650 angstrom
                   Q00  =  -0.192869

C          x = -0.155988  y =  1.721788  z =  1.631169 angstrom
           Maximum rank =  0   Radius =  0.650 angstrom
                   Q00  =  -0.113674

C          x = -0.003988  y =  0.915788  z =  2.750169 angstrom
           Maximum rank =  0   Radius =  0.650 angstrom
                   Q00  =   0.328989

O          x = -0.189988  y =  1.446788  z =  3.990169 angstrom
           Maximum rank =  0   Radius =  0.650 angstrom
                   Q00  =  -0.674203

H          x =  0.411012  y =  0.030788  z = -1.946831 angstrom
           Maximum rank =  0   Radius =  0.325 angstrom
                   Q00  =   0.063324

H          x = -0.162988  y = -1.527212  z = -1.332831 angstrom
           Maximum rank =  0   Radius =  0.325 angstrom
                   Q00  =   0.066009

H          x =  2.084012  y = -2.059212  z = -0.554831 angstrom
           Maximum rank =  0   Radius =  0.325 angstrom
                   Q00  =   0.071548

H          x =  0.759012  y = -2.004212  z =  1.225169 angstrom
           Maximum rank =  0   Radius =  0.325 angstrom
                   Q00  =   0.069676

H          x = -0.119988  y =  1.808788  z = -0.505831 angstrom
           Maximum rank =  0   Radius =  0.325 angstrom
                   Q00  =   0.064166

H          x =  0.456012  y = -1.064212  z =  3.465169 angstrom
           Maximum rank =  0   Radius =  0.325 angstrom
                   Q00  =   0.072393

H          x = -0.414988  y =  2.758788  z =  1.761169 angstrom
           Maximum rank =  0   Radius =  0.325 angstrom
                   Q00  =   0.080142

H          x = -0.103988  y =  0.795788  z =  4.683169 angstrom
           Maximum rank =  0   Radius =  0.325 angstrom
                   Q00  =   0.403164

H          x =  2.742288  y = -0.553890  z = -1.223101 angstrom
           Maximum rank =  0   Radius =  0.325 angstrom
                   Q00  =   0.085120

H          x =  2.087947  y = -1.902443  z = -2.285601 angstrom
           Maximum rank =  0   Radius =  0.325 angstrom
                   Q00  =   0.084235

Total multipoles referred to origin at
           x =   0.000000,  y =    0.000000,  z =    0.000000 angstrom
                   Q00  =  -0.000000

Finished at 8:9:12 on 27 Apr 2020   

  DMA results are available in the Python driver through the
	  variable('DMA DISTRIBUTED MULTIPOLES')
  and
	  variable('DMA TOTAL MULTIPOLES')
  commands.


    Psi4 stopped on: Monday, 27 April 2020 08:09AM
    Psi4 wall time for execution: 0:05:28.47

*** Psi4 exiting successfully. Buy a developer a beer!
