
    -----------------------------------------------------------------------
          Psi4: An Open-Source Ab Initio Electronic Structure Package
                               Psi4 1.3.2 release

                         Git: Rev {HEAD} ecbda83 


    R. M. Parrish, L. A. Burns, D. G. A. Smith, A. C. Simmonett,
    A. E. DePrince III, E. G. Hohenstein, U. Bozkaya, A. Yu. Sokolov,
    R. Di Remigio, R. M. Richard, J. F. Gonthier, A. M. James,
    H. R. McAlexander, A. Kumar, M. Saitow, X. Wang, B. P. Pritchard,
    P. Verma, H. F. Schaefer III, K. Patkowski, R. A. King, E. F. Valeev,
    F. A. Evangelista, J. M. Turney, T. D. Crawford, and C. D. Sherrill,
    J. Chem. Theory Comput. 13(7) pp 3185--3197 (2017).
    (doi: 10.1021/acs.jctc.7b00174)


                         Additional Contributions by
    P. Kraus, H. Kruse, M. H. Lechner, M. C. Schieber, R. A. Shaw,
    A. Alenaizan, R. Galvelis, Z. L. Glick, S. Lehtola, and J. P. Misiewicz

    -----------------------------------------------------------------------


    Psi4 started on: Monday, 27 April 2020 09:38PM

    Process ID: 13400
    Host:       ds3
    PSIDATADIR: /theoryfs2/ds/metcalf/miniconda2/envs/tf2gpu/share/psi4
    Memory:     500.0 MiB
    Threads:    1
    
  ==> Input File <==

--------------------------------------------------------------------------
import numpy as np
set {scf_type pk
basis cc-pvdz
d_convergence 10
gdma_switch   0
gdma_limit    0
gdma_origin   [ 0.0,  0.0,  0.0 ]
}
molecule test {
    units Angstrom
    0 1
    --
    0 1
    C                1.690897020287009    -2.699137791261342    -0.861261092080188
    C               -0.020102979712991     0.739862208738658    -0.930261092080188
    C               -1.385102979712991     0.380862208738658    -0.731261092080188
    C                0.977897020287009    -0.273137791261342    -0.968261092080188
    C                0.636897020287009    -1.630137791261342    -0.840261092080188
    C               -1.715102979712991    -0.980137791261342    -0.579261092080188
    C               -0.693102979712991    -1.972137791261342    -0.637261092080188
    H                0.255897020287009     1.776862208738658    -1.060261092080188
    H               -2.154102979712991     1.141862208738658    -0.697261092080188
    H                2.009897020287009     0.008862208738658    -1.115261092080188
    H               -2.736102979712991    -1.280137791261342    -0.426261092080188
    H                2.502897020287009    -2.389137791261343    -1.520261092080188
    H                1.252897020287009    -3.597137791261342    -1.293261092080188
    H               -0.963102979712991    -3.010137791261343    -0.517261092080188
    H                2.103436020287009    -2.948777791261342     0.127418907919812
    C               -0.247102979712991     3.286862208738658     1.888738907919812
    C                0.501897020287009     2.538862208738658     2.983738907919812
    H               -1.264102979712991     3.513862208738658     2.206738907919812
    H                0.271897020287009     4.216862208738658     1.659738907919812
    H               -0.285102979712991     2.682862208738658     0.987738907919812
    H                1.528897020287009     2.363862208738658     2.660738907919812
    H               -0.009307979712991     1.579712208738658     3.153168907919812
    H                0.497561020287009     3.182792208738658     3.875558907919812

}
e, wfn = energy('scf', return_wfn=True)
gdma(wfn)
dmavals = variable('DMA DISTRIBUTED MULTIPOLES')
charges = np.array(dmavals)
print(charges)
np.save('SSI-030PHE-042LEU-1-dimer.npy', np.array(charges))--------------------------------------------------------------------------

*** tstart() called on ds3
*** at Mon Apr 27 21:38:01 2020

   => Loading Basis Set <=

    Name: CC-PVDZ
    Role: ORBITAL
    Keyword: BASIS
    atoms 1-7, 16-17  entry C          line   138 file /theoryfs2/ds/metcalf/miniconda2/envs/tf2gpu/share/psi4/basis/cc-pvdz.gbs 
    atoms 8-15, 18-23 entry H          line    22 file /theoryfs2/ds/metcalf/miniconda2/envs/tf2gpu/share/psi4/basis/cc-pvdz.gbs 


         ---------------------------------------------------------
                                   SCF
               by Justin Turney, Rob Parrish, Andy Simmonett
                          and Daniel G. A. Smith
                              RHF Reference
                        1 Threads,    500 MiB Core
         ---------------------------------------------------------

  ==> Geometry <==

    Molecular point group: c1
    Full point group: C1

    Geometry (in Angstrom), charge = 0, multiplicity = 1:

       Center              X                  Y                   Z               Mass       
    ------------   -----------------  -----------------  -----------------  -----------------
         C            1.690897020287    -2.699137791261    -0.861261092080    12.000000000000
         C           -0.020102979713     0.739862208739    -0.930261092080    12.000000000000
         C           -1.385102979713     0.380862208739    -0.731261092080    12.000000000000
         C            0.977897020287    -0.273137791261    -0.968261092080    12.000000000000
         C            0.636897020287    -1.630137791261    -0.840261092080    12.000000000000
         C           -1.715102979713    -0.980137791261    -0.579261092080    12.000000000000
         C           -0.693102979713    -1.972137791261    -0.637261092080    12.000000000000
         H            0.255897020287     1.776862208739    -1.060261092080     1.007825032230
         H           -2.154102979713     1.141862208739    -0.697261092080     1.007825032230
         H            2.009897020287     0.008862208739    -1.115261092080     1.007825032230
         H           -2.736102979713    -1.280137791261    -0.426261092080     1.007825032230
         H            2.502897020287    -2.389137791261    -1.520261092080     1.007825032230
         H            1.252897020287    -3.597137791261    -1.293261092080     1.007825032230
         H           -0.963102979713    -3.010137791261    -0.517261092080     1.007825032230
         H            2.103436020287    -2.948777791261     0.127418907920     1.007825032230
         C           -0.247102979713     3.286862208739     1.888738907920    12.000000000000
         C            0.501897020287     2.538862208739     2.983738907920    12.000000000000
         H           -1.264102979713     3.513862208739     2.206738907920     1.007825032230
         H            0.271897020287     4.216862208739     1.659738907920     1.007825032230
         H           -0.285102979713     2.682862208739     0.987738907920     1.007825032230
         H            1.528897020287     2.363862208739     2.660738907920     1.007825032230
         H           -0.009307979713     1.579712208739     3.153168907920     1.007825032230
         H            0.497561020287     3.182792208739     3.875558907920     1.007825032230

  Running in c1 symmetry.

  Rotational constants: A =      0.07485  B =      0.02288  C =      0.02025 [cm^-1]
  Rotational constants: A =   2243.89919  B =    685.83031  C =    607.03282 [MHz]
  Nuclear repulsion =  401.641152396332870

  Charge       = 0
  Multiplicity = 1
  Electrons    = 68
  Nalpha       = 34
  Nbeta        = 34

  ==> Algorithm <==

  SCF Algorithm Type is PK.
  DIIS enabled.
  MOM disabled.
  Fractional occupation disabled.
  Guess Type is SAD.
  Energy threshold   = 1.00e-06
  Density threshold  = 1.00e-10
  Integral threshold = 0.00e+00

  ==> Primary Basis <==

  Basis Set: CC-PVDZ
    Blend: CC-PVDZ
    Number of shells: 96
    Number of basis function: 196
    Number of Cartesian functions: 205
    Spherical Harmonics?: true
    Max angular momentum: 2

  ==> Pre-Iterations <==

   -------------------------------------------------------
    Irrep   Nso     Nmo     Nalpha   Nbeta   Ndocc  Nsocc
   -------------------------------------------------------
     A        196     196       0       0       0       0
   -------------------------------------------------------
    Total     196     196      34      34      34       0
   -------------------------------------------------------

  ==> Integral Setup <==

  Using integral reordering PK algorithm.
  Sizing the integral batches needed.
  Building batch lookup table.
   Calculation information:
      Number of atoms:                  23
      Number of AO shells:              96
      Number of primitives:            268
      Number of atomic orbitals:       205
      Number of basis functions:       196

      Integral cutoff                 1.00e-12
      Number of threads:                 1

	Batch   1 pq = [       0,    9405] index = [             0,44231715] size =     44231715
	Batch   2 pq = [    9405,   13301] index = [      44231715,88464951] size =     44233236
	Batch   3 pq = [   13301,   16290] index = [      88464951,132690195] size =     44225244
	Batch   4 pq = [   16290,   18810] index = [     132690195,176917455] size =     44227260
	Batch   5 pq = [   18810,   19306] index = [     176917455,186370471] size =      9453016
  Task number: 17
  Buffer size: 11059200
  Buffer per thread: 2
  We computed 9212042 shell quartets total.
  Whereas there are 10841496 unique shell quartets.

  ==> DiskJK: Disk-Based J/K Matrices <==

    J tasked:                  Yes
    K tasked:                  Yes
    wK tasked:                  No
    Memory [MiB]:              375
    Schwarz Cutoff:          1E-12

    OpenMP threads:              1

  Minimum eigenvalue in the overlap matrix is 3.4956970584E-04.
  Using Symmetric Orthogonalization.

  SCF Guess: Superposition of Atomic Densities via on-the-fly atomic UHF.

  ==> Iterations <==

                        Total Energy        Delta E     RMS |[F,P]|

   @RHF iter SAD:  -347.68539368746730   -3.47685e+02   0.00000e+00 
   @RHF iter   1:  -348.76794116317672   -1.08255e+00   2.84871e-03 DIIS
   @RHF iter   2:  -348.95591417838472   -1.87973e-01   1.17506e-03 DIIS
   @RHF iter   3:  -348.98502016001152   -2.91060e-02   2.61484e-04 DIIS
   @RHF iter   4:  -348.98748665498414   -2.46649e-03   6.77215e-05 DIIS
   @RHF iter   5:  -348.98759667972780   -1.10025e-04   2.17579e-05 DIIS
   @RHF iter   6:  -348.98760868610373   -1.20064e-05   4.96631e-06 DIIS
   @RHF iter   7:  -348.98760949352021   -8.07416e-07   1.28033e-06 DIIS
   @RHF iter   8:  -348.98760958630169   -9.27815e-08   4.77504e-07 DIIS
   @RHF iter   9:  -348.98760961148776   -2.51861e-08   2.26198e-07 DIIS
   @RHF iter  10:  -348.98760961854543   -7.05768e-09   1.03144e-07 DIIS
   @RHF iter  11:  -348.98760962007037   -1.52494e-09   2.97255e-08 DIIS
   @RHF iter  12:  -348.98760962014813   -7.77618e-11   1.24374e-08 DIIS
   @RHF iter  13:  -348.98760962015433   -6.19593e-12   4.49394e-09 DIIS
   @RHF iter  14:  -348.98760962015558   -1.25056e-12   1.33877e-09 DIIS
   @RHF iter  15:  -348.98760962015501    5.68434e-13   4.71170e-10 DIIS
   @RHF iter  16:  -348.98760962015456    4.54747e-13   2.14294e-10 DIIS
   @RHF iter  17:  -348.98760962015592   -1.36424e-12   9.15504e-11 DIIS
  Energy and wave function converged.


  ==> Post-Iterations <==

    Orbital Energies [Eh]
    ---------------------

    Doubly Occupied:                                                      

       1A    -11.244849     2A    -11.242857     3A    -11.242486  
       4A    -11.240251     5A    -11.237193     6A    -11.234451  
       7A    -11.230132     8A    -11.214325     9A    -11.209763  
      10A     -1.143152    11A     -1.042307    12A     -1.016199  
      13A     -1.002797    14A     -0.930493    15A     -0.830256  
      16A     -0.824759    17A     -0.793082    18A     -0.687068  
      19A     -0.636836    20A     -0.625470    21A     -0.597680  
      22A     -0.595505    23A     -0.578416    24A     -0.577668  
      25A     -0.564704    26A     -0.534100    27A     -0.492975  
      28A     -0.488366    29A     -0.483952    30A     -0.483344  
      31A     -0.480908    32A     -0.474362    33A     -0.325956  
      34A     -0.322355  

    Virtual:                                                              

      35A      0.127534    36A      0.136508    37A      0.177745  
      38A      0.193583    39A      0.207211    40A      0.220109  
      41A      0.232476    42A      0.245058    43A      0.255337  
      44A      0.258374    45A      0.266482    46A      0.277806  
      47A      0.282854    48A      0.286795    49A      0.291652  
      50A      0.341567    51A      0.360668    52A      0.374657  
      53A      0.400873    54A      0.440870    55A      0.457877  
      56A      0.475910    57A      0.484626    58A      0.561116  
      59A      0.592746    60A      0.603215    61A      0.607491  
      62A      0.611792    63A      0.638266    64A      0.660204  
      65A      0.671898    66A      0.686581    67A      0.694316  
      68A      0.708252    69A      0.717156    70A      0.737527  
      71A      0.739702    72A      0.744728    73A      0.752666  
      74A      0.770162    75A      0.774264    76A      0.805292  
      77A      0.844363    78A      0.848594    79A      0.861373  
      80A      0.867261    81A      0.875784    82A      0.887342  
      83A      0.893470    84A      0.896113    85A      0.897713  
      86A      0.902615    87A      0.910691    88A      0.916535  
      89A      0.925977    90A      0.933301    91A      0.942038  
      92A      0.953046    93A      0.977112    94A      1.001242  
      95A      1.011864    96A      1.068442    97A      1.097232  
      98A      1.124102    99A      1.135155   100A      1.137739  
     101A      1.151201   102A      1.160469   103A      1.184459  
     104A      1.228607   105A      1.234162   106A      1.241116  
     107A      1.247519   108A      1.287197   109A      1.290252  
     110A      1.304203   111A      1.316186   112A      1.354146  
     113A      1.411488   114A      1.486234   115A      1.493208  
     116A      1.507951   117A      1.515411   118A      1.551956  
     119A      1.573752   120A      1.600276   121A      1.673768  
     122A      1.678323   123A      1.692772   124A      1.700794  
     125A      1.726042   126A      1.738253   127A      1.749314  
     128A      1.784821   129A      1.796765   130A      1.847649  
     131A      1.855777   132A      1.859423   133A      1.869894  
     134A      1.884318   135A      1.900519   136A      1.903653  
     137A      1.914460   138A      1.924621   139A      1.937563  
     140A      1.939757   141A      1.947586   142A      1.952799  
     143A      1.961141   144A      1.963866   145A      1.971211  
     146A      1.978420   147A      1.996857   148A      2.006435  
     149A      2.027845   150A      2.049564   151A      2.052222  
     152A      2.096472   153A      2.116474   154A      2.120202  
     155A      2.132509   156A      2.136470   157A      2.144591  
     158A      2.154653   159A      2.164999   160A      2.250495  
     161A      2.268699   162A      2.276876   163A      2.285900  
     164A      2.296378   165A      2.301178   166A      2.308896  
     167A      2.329104   168A      2.456165   169A      2.465167  
     170A      2.466783   171A      2.473298   172A      2.478597  
     173A      2.528370   174A      2.576581   175A      2.588865  
     176A      2.608767   177A      2.730501   178A      2.732797  
     179A      2.757740   180A      2.764797   181A      2.773808  
     182A      2.801926   183A      2.811274   184A      2.840253  
     185A      2.846067   186A      2.851607   187A      2.863061  
     188A      2.946338   189A      2.957303   190A      2.972674  
     191A      2.997948   192A      3.002770   193A      3.129634  
     194A      3.166255   195A      3.257190   196A      3.896419  

    Final Occupation by Irrep:
              A 
    DOCC [    34 ]

  @RHF Final Energy:  -348.98760962015592

   => Energetics <=

    Nuclear Repulsion Energy =            401.6411523963328705
    One-Electron Energy =               -1265.9994855034453849
    Two-Electron Energy =                 515.3707234869565355
    Total Energy =                       -348.9876096201559221

Computation Completed


Properties will be evaluated at   0.000000,   0.000000,   0.000000 [a0]

Properties computed using the SCF density matrix

  Nuclear Dipole Moment: [e a0]
     X:     2.8232      Y:     6.7894      Z:     7.5384

  Electronic Dipole Moment: [e a0]
     X:    -2.7402      Y:    -6.9433      Z:    -7.5803

  Dipole Moment: [e a0]
     X:     0.0831      Y:    -0.1540      Z:    -0.0419     Total:     0.1799

  Dipole Moment: [D]
     X:     0.2112      Y:    -0.3913      Z:    -0.1064     Total:     0.4572


*** tstop() called on ds3 at Mon Apr 27 21:39:29 2020
Module time:
	user time   =      62.13 seconds =       1.04 minutes
	system time =      28.19 seconds =       0.47 minutes
	total time  =         88 seconds =       1.47 minutes
Total time:
	user time   =      62.13 seconds =       1.04 minutes
	system time =      28.19 seconds =       0.47 minutes
	total time  =         88 seconds =       1.47 minutes
                                     G D M A

                                 by Anthony Stone

                           version 2.2.06, 22 June 2011

               Distributed Multipoles from Gaussian wavefunctions


Starting at 21:39:29 on 27 Apr 2020 


Using SCF density matrix from file ./SSI/SSI-030PHE-042LEU-1-dimer.test.13400.fchk


                         Distributed Multipole Analysis

Standard DMA

Positions and radii in angstrom
Multipole moments in atomic units, ea_0^k for rank k

C          x =  1.690897  y = -2.699138  z = -0.861261 angstrom
           Maximum rank =  0   Radius =  0.650 angstrom
                   Q00  =  -0.204471

C          x = -0.020103  y =  0.739862  z = -0.930261 angstrom
           Maximum rank =  0   Radius =  0.650 angstrom
                   Q00  =  -0.093549

C          x = -1.385103  y =  0.380862  z = -0.731261 angstrom
           Maximum rank =  0   Radius =  0.650 angstrom
                   Q00  =  -0.094886

C          x =  0.977897  y = -0.273138  z = -0.968261 angstrom
           Maximum rank =  0   Radius =  0.650 angstrom
                   Q00  =  -0.066423

C          x =  0.636897  y = -1.630138  z = -0.840261 angstrom
           Maximum rank =  0   Radius =  0.650 angstrom
                   Q00  =  -0.089532

C          x = -1.715103  y = -0.980138  z = -0.579261 angstrom
           Maximum rank =  0   Radius =  0.650 angstrom
                   Q00  =  -0.069746

C          x = -0.693103  y = -1.972138  z = -0.637261 angstrom
           Maximum rank =  0   Radius =  0.650 angstrom
                   Q00  =  -0.022666

H          x =  0.255897  y =  1.776862  z = -1.060261 angstrom
           Maximum rank =  0   Radius =  0.325 angstrom
                   Q00  =   0.073966

H          x = -2.154103  y =  1.141862  z = -0.697261 angstrom
           Maximum rank =  0   Radius =  0.325 angstrom
                   Q00  =   0.070518

H          x =  2.009897  y =  0.008862  z = -1.115261 angstrom
           Maximum rank =  0   Radius =  0.325 angstrom
                   Q00  =   0.062128

H          x = -2.736103  y = -1.280138  z = -0.426261 angstrom
           Maximum rank =  0   Radius =  0.325 angstrom
                   Q00  =   0.070638

H          x =  2.502897  y = -2.389138  z = -1.520261 angstrom
           Maximum rank =  0   Radius =  0.325 angstrom
                   Q00  =   0.098523

H          x =  1.252897  y = -3.597138  z = -1.293261 angstrom
           Maximum rank =  0   Radius =  0.325 angstrom
                   Q00  =   0.097989

H          x = -0.963103  y = -3.010138  z = -0.517261 angstrom
           Maximum rank =  0   Radius =  0.325 angstrom
                   Q00  =   0.059377

H          x =  2.103436  y = -2.948778  z =  0.127419 angstrom
           Maximum rank =  0   Radius =  0.325 angstrom
                   Q00  =   0.106506

C          x = -0.247103  y =  3.286862  z =  1.888739 angstrom
           Maximum rank =  0   Radius =  0.650 angstrom
                   Q00  =  -0.242205

C          x =  0.501897  y =  2.538862  z =  2.983739 angstrom
           Maximum rank =  0   Radius =  0.650 angstrom
                   Q00  =  -0.227220

H          x = -1.264103  y =  3.513862  z =  2.206739 angstrom
           Maximum rank =  0   Radius =  0.325 angstrom
                   Q00  =   0.076058

H          x =  0.271897  y =  4.216862  z =  1.659739 angstrom
           Maximum rank =  0   Radius =  0.325 angstrom
                   Q00  =   0.071165

H          x = -0.285103  y =  2.682862  z =  0.987739 angstrom
           Maximum rank =  0   Radius =  0.325 angstrom
                   Q00  =   0.089110

H          x =  1.528897  y =  2.363862  z =  2.660739 angstrom
           Maximum rank =  0   Radius =  0.325 angstrom
                   Q00  =   0.078534

H          x = -0.009308  y =  1.579712  z =  3.153169 angstrom
           Maximum rank =  0   Radius =  0.325 angstrom
                   Q00  =   0.082379

H          x =  0.497561  y =  3.182792  z =  3.875559 angstrom
           Maximum rank =  0   Radius =  0.325 angstrom
                   Q00  =   0.073808

Total multipoles referred to origin at
           x =   0.000000,  y =    0.000000,  z =    0.000000 angstrom
                   Q00  =  -0.000000

Finished at 21:39:29 on 27 Apr 2020 

  DMA results are available in the Python driver through the
	  variable('DMA DISTRIBUTED MULTIPOLES')
  and
	  variable('DMA TOTAL MULTIPOLES')
  commands.


    Psi4 stopped on: Monday, 27 April 2020 09:39PM
    Psi4 wall time for execution: 0:01:27.54

*** Psi4 exiting successfully. Buy a developer a beer!
