
    -----------------------------------------------------------------------
          Psi4: An Open-Source Ab Initio Electronic Structure Package
                               Psi4 1.3.2 release

                         Git: Rev {HEAD} ecbda83 


    R. M. Parrish, L. A. Burns, D. G. A. Smith, A. C. Simmonett,
    A. E. DePrince III, E. G. Hohenstein, U. Bozkaya, A. Yu. Sokolov,
    R. Di Remigio, R. M. Richard, J. F. Gonthier, A. M. James,
    H. R. McAlexander, A. Kumar, M. Saitow, X. Wang, B. P. Pritchard,
    P. Verma, H. F. Schaefer III, K. Patkowski, R. A. King, E. F. Valeev,
    F. A. Evangelista, J. M. Turney, T. D. Crawford, and C. D. Sherrill,
    J. Chem. Theory Comput. 13(7) pp 3185--3197 (2017).
    (doi: 10.1021/acs.jctc.7b00174)


                         Additional Contributions by
    P. Kraus, H. Kruse, M. H. Lechner, M. C. Schieber, R. A. Shaw,
    A. Alenaizan, R. Galvelis, Z. L. Glick, S. Lehtola, and J. P. Misiewicz

    -----------------------------------------------------------------------


    Psi4 started on: Monday, 27 April 2020 02:37PM

    Process ID: 9433
    Host:       ds3
    PSIDATADIR: /theoryfs2/ds/metcalf/miniconda2/envs/tf2gpu/share/psi4
    Memory:     500.0 MiB
    Threads:    1
    
  ==> Input File <==

--------------------------------------------------------------------------
import numpy as np
set {scf_type pk
basis cc-pvdz
d_convergence 10
gdma_switch   0
gdma_limit    0
gdma_origin   [ 0.0,  0.0,  0.0 ]
}
molecule test {
    units Angstrom
    1 1
    --
    1 1
    C                2.553873235303576     1.135041252795801     0.236274654008519
    C                3.045873235303576     1.424041252795801    -1.165725345991481
    C                1.600873235303576    -0.881958747204199     1.320274654008519
    N                2.316873235303576    -0.303958747204199     0.371274654008519
    N                0.982873235303576    -0.155958747204199     2.230274654008519
    N                1.481873235303576    -2.194958747204199     1.333274654008519
    H                3.307873235303576     1.451041252795801     0.960274654008519
    H                1.631873235303576     1.696041252795801     0.401274654008519
    H                2.252873235303576     1.173041252795801    -1.869725345991481
    H                3.900873235303576     0.778041252795801    -1.354725345991481
    H                2.842873235303576    -0.925958747204199    -0.242725345991481
    H                1.060873235303576     0.845041252795801     2.200274654008519
    H                0.414873235303576    -0.596958747204199     2.934274654008519
    H                1.980873235303576    -2.739958747204199     0.647274654008519
    H                0.924873235303576    -2.652958747204199     2.035274654008519
    H                3.343645235303576     2.474541252795801    -1.299105345991481
    C               -1.381126764696424    -2.723958747204199    -1.293725345991481
    C               -1.562126764696424     0.673041252795801     0.257274654008519
    C               -1.224126764696424    -0.163958747204199    -0.834725345991481
    C               -1.533126764696424    -1.510958747204199    -0.454725345991481
    C               -2.086126764696424    -1.442958747204199     0.786274654008519
    C               -0.816126764696424     2.597041252795801    -0.909725345991481
    C               -1.378126764696424     2.048041252795801     0.226274654008519
    C               -0.496126764696424     1.797041252795801    -2.011725345991481
    C               -0.689126764696424     0.421041252795801    -1.985725345991481
    N               -2.101126764696423    -0.137958747204199     1.221274654008519
    H               -0.639126764696424     3.664041252795801    -0.959725345991481
    H               -1.637126764696424     2.660041252795801     1.078274654008519
    H               -0.072126764696424     2.254041252795801    -2.886725345991481
    H               -0.422126764696424    -0.191958747204199    -2.831725345991481
    H               -2.483126764696424     0.162041252795801     2.112274654008519
    H               -2.461126764696424    -2.293958747204199     1.347274654008519
    H               -1.281126764696424    -3.596958747204199    -0.645725345991481
    H               -0.462126764696424    -2.630958747204199    -1.875725345991481
    H               -2.230416764696424    -2.867428747204199    -1.977915345991481

}
e, wfn = energy('scf', return_wfn=True)
gdma(wfn)
dmavals = variable('DMA DISTRIBUTED MULTIPOLES')
charges = np.array(dmavals)
print(charges)
np.save('SSI-009ARG-031TRP-1-dimer.npy', np.array(charges))--------------------------------------------------------------------------

*** tstart() called on ds3
*** at Mon Apr 27 14:37:55 2020

   => Loading Basis Set <=

    Name: CC-PVDZ
    Role: ORBITAL
    Keyword: BASIS
    atoms 1-3, 17-25  entry C          line   138 file /theoryfs2/ds/metcalf/miniconda2/envs/tf2gpu/share/psi4/basis/cc-pvdz.gbs 
    atoms 4-6, 26     entry N          line   168 file /theoryfs2/ds/metcalf/miniconda2/envs/tf2gpu/share/psi4/basis/cc-pvdz.gbs 
    atoms 7-16, 27-35 entry H          line    22 file /theoryfs2/ds/metcalf/miniconda2/envs/tf2gpu/share/psi4/basis/cc-pvdz.gbs 


         ---------------------------------------------------------
                                   SCF
               by Justin Turney, Rob Parrish, Andy Simmonett
                          and Daniel G. A. Smith
                              RHF Reference
                        1 Threads,    500 MiB Core
         ---------------------------------------------------------

  ==> Geometry <==

    Molecular point group: c1
    Full point group: C1

    Geometry (in Angstrom), charge = 1, multiplicity = 1:

       Center              X                  Y                   Z               Mass       
    ------------   -----------------  -----------------  -----------------  -----------------
         C            2.553873235304     1.135041252796     0.236274654009    12.000000000000
         C            3.045873235304     1.424041252796    -1.165725345991    12.000000000000
         C            1.600873235304    -0.881958747204     1.320274654009    12.000000000000
         N            2.316873235304    -0.303958747204     0.371274654009    14.003074004430
         N            0.982873235304    -0.155958747204     2.230274654009    14.003074004430
         N            1.481873235304    -2.194958747204     1.333274654009    14.003074004430
         H            3.307873235304     1.451041252796     0.960274654009     1.007825032230
         H            1.631873235304     1.696041252796     0.401274654009     1.007825032230
         H            2.252873235304     1.173041252796    -1.869725345991     1.007825032230
         H            3.900873235304     0.778041252796    -1.354725345991     1.007825032230
         H            2.842873235304    -0.925958747204    -0.242725345991     1.007825032230
         H            1.060873235304     0.845041252796     2.200274654009     1.007825032230
         H            0.414873235304    -0.596958747204     2.934274654009     1.007825032230
         H            1.980873235304    -2.739958747204     0.647274654009     1.007825032230
         H            0.924873235304    -2.652958747204     2.035274654009     1.007825032230
         H            3.343645235304     2.474541252796    -1.299105345991     1.007825032230
         C           -1.381126764696    -2.723958747204    -1.293725345991    12.000000000000
         C           -1.562126764696     0.673041252796     0.257274654009    12.000000000000
         C           -1.224126764696    -0.163958747204    -0.834725345991    12.000000000000
         C           -1.533126764696    -1.510958747204    -0.454725345991    12.000000000000
         C           -2.086126764696    -1.442958747204     0.786274654009    12.000000000000
         C           -0.816126764696     2.597041252796    -0.909725345991    12.000000000000
         C           -1.378126764696     2.048041252796     0.226274654009    12.000000000000
         C           -0.496126764696     1.797041252796    -2.011725345991    12.000000000000
         C           -0.689126764696     0.421041252796    -1.985725345991    12.000000000000
         N           -2.101126764696    -0.137958747204     1.221274654009    14.003074004430
         H           -0.639126764696     3.664041252796    -0.959725345991     1.007825032230
         H           -1.637126764696     2.660041252796     1.078274654009     1.007825032230
         H           -0.072126764696     2.254041252796    -2.886725345991     1.007825032230
         H           -0.422126764696    -0.191958747204    -2.831725345991     1.007825032230
         H           -2.483126764696     0.162041252796     2.112274654009     1.007825032230
         H           -2.461126764696    -2.293958747204     1.347274654009     1.007825032230
         H           -1.281126764696    -3.596958747204    -0.645725345991     1.007825032230
         H           -0.462126764696    -2.630958747204    -1.875725345991     1.007825032230
         H           -2.230416764696    -2.867428747204    -1.977915345991     1.007825032230

  Running in c1 symmetry.

  Rotational constants: A =      0.01958  B =      0.01732  C =      0.01309 [cm^-1]
  Rotational constants: A =    586.96411  B =    519.30325  C =    392.48655 [MHz]
  Nuclear repulsion = 1155.342810494373907

  Charge       = 1
  Multiplicity = 1
  Electrons    = 118
  Nalpha       = 59
  Nbeta        = 59

  ==> Algorithm <==

  SCF Algorithm Type is PK.
  DIIS enabled.
  MOM disabled.
  Fractional occupation disabled.
  Guess Type is SAD.
  Energy threshold   = 1.00e-06
  Density threshold  = 1.00e-10
  Integral threshold = 0.00e+00

  ==> Primary Basis <==

  Basis Set: CC-PVDZ
    Blend: CC-PVDZ
    Number of shells: 153
    Number of basis function: 319
    Number of Cartesian functions: 335
    Spherical Harmonics?: true
    Max angular momentum: 2

  ==> Pre-Iterations <==

   -------------------------------------------------------
    Irrep   Nso     Nmo     Nalpha   Nbeta   Ndocc  Nsocc
   -------------------------------------------------------
     A        319     319       0       0       0       0
   -------------------------------------------------------
    Total     319     319      59      59      59       0
   -------------------------------------------------------

  ==> Integral Setup <==

  Using integral reordering PK algorithm.
  Sizing the integral batches needed.
  Building batch lookup table.
   Calculation information:
      Number of atoms:                  35
      Number of AO shells:             153
      Number of primitives:            447
      Number of atomic orbitals:       335
      Number of basis functions:       319

      Integral cutoff                 1.00e-12
      Number of threads:                 1

	Batch   1 pq = [       0,    9405] index = [             0,44231715] size =     44231715
	Batch   2 pq = [    9405,   13301] index = [      44231715,88464951] size =     44233236
	Batch   3 pq = [   13301,   16290] index = [      88464951,132690195] size =     44225244
	Batch   4 pq = [   16290,   18810] index = [     132690195,176917455] size =     44227260
	Batch   5 pq = [   18810,   21030] index = [     176917455,221140965] size =     44223510
	Batch   6 pq = [   21030,   23037] index = [     221140965,265363203] size =     44222238
	Batch   7 pq = [   23037,   24883] index = [     265363203,309594286] size =     44231083
	Batch   8 pq = [   24883,   26601] index = [     309594286,353819901] size =     44225615
	Batch   9 pq = [   26601,   28214] index = [     353819901,398029005] size =     44209104
	Batch  10 pq = [   28214,   29740] index = [     398029005,442248670] size =     44219665
	Batch  11 pq = [   29740,   31191] index = [     442248670,486454836] size =     44206166
	Batch  12 pq = [   31191,   32578] index = [     486454836,530679331] size =     44224495
	Batch  13 pq = [   32578,   33908] index = [     530679331,574893186] size =     44213855
	Batch  14 pq = [   33908,   35188] index = [     574893186,619115266] size =     44222080
	Batch  15 pq = [   35188,   36423] index = [     619115266,663335676] size =     44220410
	Batch  16 pq = [   36423,   37617] index = [     663335676,707538153] size =     44202477
	Batch  17 pq = [   37617,   38775] index = [     707538153,751769700] size =     44231547
	Batch  18 pq = [   38775,   39899] index = [     751769700,795985050] size =     44215350
	Batch  19 pq = [   39899,   40992] index = [     795985050,840192528] size =     44207478
	Batch  20 pq = [   40992,   42057] index = [     840192528,884416653] size =     44224125
	Batch  21 pq = [   42057,   43095] index = [     884416653,928611060] size =     44194407
	Batch  22 pq = [   43095,   44109] index = [     928611060,972823995] size =     44212935
	Batch  23 pq = [   44109,   45100] index = [     972823995,1017027550] size =     44203555
	Batch  24 pq = [   45100,   46070] index = [    1017027550,1061245485] size =     44217935
	Batch  25 pq = [   46070,   47020] index = [    1061245485,1105463710] size =     44218225
	Batch  26 pq = [   47020,   47951] index = [    1105463710,1149673176] size =     44209466
	Batch  27 pq = [   47951,   48864] index = [    1149673176,1193869680] size =     44196504
	Batch  28 pq = [   48864,   49761] index = [    1193869680,1238103441] size =     44233761
	Batch  29 pq = [   49761,   50642] index = [    1238103441,1282331403] size =     44227962
	Batch  30 pq = [   50642,   51040] index = [    1282331403,1302566320] size =     20234917
  Task number: 118
  Buffer size: 11059200
  Buffer per thread: 2
  We computed 98682177 shell quartets total.
  Whereas there are 69401871 unique shell quartets.
    42.19 percent of shell quartets recomputed by reordering.

  ==> DiskJK: Disk-Based J/K Matrices <==

    J tasked:                  Yes
    K tasked:                  Yes
    wK tasked:                  No
    Memory [MiB]:              375
    Schwarz Cutoff:          1E-12

    OpenMP threads:              1

  Minimum eigenvalue in the overlap matrix is 2.3612042004E-04.
  Using Symmetric Orthogonalization.

  SCF Guess: Superposition of Atomic Densities via on-the-fly atomic UHF.

  ==> Iterations <==

                        Total Energy        Delta E     RMS |[F,P]|

   @RHF iter SAD:  -682.96479375264244   -6.82965e+02   0.00000e+00 
   @RHF iter   1:  -682.80988215474383    1.54912e-01   2.32383e-03 DIIS
   @RHF iter   2:  -683.11045353565839   -3.00571e-01   9.94203e-04 DIIS
   @RHF iter   3:  -683.16078992709868   -5.03364e-02   2.81497e-04 DIIS
   @RHF iter   4:  -683.16604204671864   -5.25212e-03   1.19775e-04 DIIS
   @RHF iter   5:  -683.16684851224193   -8.06466e-04   1.94420e-05 DIIS
   @RHF iter   6:  -683.16689150559341   -4.29934e-05   8.75005e-06 DIIS
   @RHF iter   7:  -683.16689957479127   -8.06920e-06   3.17201e-06 DIIS
   @RHF iter   8:  -683.16690138892307   -1.81413e-06   1.27694e-06 DIIS
   @RHF iter   9:  -683.16690173266079   -3.43738e-07   6.25807e-07 DIIS
   @RHF iter  10:  -683.16690183526885   -1.02608e-07   2.76174e-07 DIIS
   @RHF iter  11:  -683.16690185854827   -2.32794e-08   9.61903e-08 DIIS
   @RHF iter  12:  -683.16690186121514   -2.66687e-09   3.99304e-08 DIIS
   @RHF iter  13:  -683.16690186144820   -2.33058e-10   1.44437e-08 DIIS
   @RHF iter  14:  -683.16690186149685   -4.86580e-11   5.42837e-09 DIIS
   @RHF iter  15:  -683.16690186150754   -1.06866e-11   2.09827e-09 DIIS
   @RHF iter  16:  -683.16690186151368   -6.13909e-12   8.16232e-10 DIIS
   @RHF iter  17:  -683.16690186151584   -2.16005e-12   4.33702e-10 DIIS
   @RHF iter  18:  -683.16690186151368    2.16005e-12   2.07740e-10 DIIS
   @RHF iter  19:  -683.16690186151050    3.18323e-12   8.36452e-11 DIIS
  Energy and wave function converged.


  ==> Post-Iterations <==

    Orbital Energies [Eh]
    ---------------------

    Doubly Occupied:                                                      

       1A    -15.769519     2A    -15.768837     3A    -15.763308  
       4A    -15.713655     5A    -11.568736     6A    -11.415933  
       7A    -11.375281     8A    -11.374206     9A    -11.352608  
      10A    -11.340263    11A    -11.339584    12A    -11.337604  
      13A    -11.330982    14A    -11.330186    15A    -11.328098  
      16A    -11.327417    17A     -1.527570    18A     -1.408470  
      19A     -1.384597    20A     -1.375129    21A     -1.241616  
      22A     -1.186975    23A     -1.173656    24A     -1.108949  
      25A     -1.099470    26A     -1.040314    27A     -1.035546  
      28A     -0.999028    29A     -0.956273    30A     -0.950819  
      31A     -0.917798    32A     -0.914724    33A     -0.862867  
      34A     -0.842980    35A     -0.839361    36A     -0.829934  
      37A     -0.813128    38A     -0.774510    39A     -0.772622  
      40A     -0.752438    41A     -0.750839    42A     -0.713241  
      43A     -0.703439    44A     -0.701105    45A     -0.677812  
      46A     -0.674740    47A     -0.661177    48A     -0.650207  
      49A     -0.647258    50A     -0.641935    51A     -0.634375  
      52A     -0.603269    53A     -0.598850    54A     -0.580998  
      55A     -0.573485    56A     -0.562099    57A     -0.484234  
      58A     -0.407819    59A     -0.386900  

    Virtual:                                                              

      60A     -0.003381    61A      0.015245    62A      0.035150  
      63A      0.045584    64A      0.048310    65A      0.059480  
      66A      0.069735    67A      0.076200    68A      0.087219  
      69A      0.101011    70A      0.107943    71A      0.117197  
      72A      0.125667    73A      0.134583    74A      0.139910  
      75A      0.144856    76A      0.154582    77A      0.166193  
      78A      0.170777    79A      0.173809    80A      0.190407  
      81A      0.199155    82A      0.215833    83A      0.218778  
      84A      0.259139    85A      0.266730    86A      0.274391  
      87A      0.290425    88A      0.306397    89A      0.314556  
      90A      0.337355    91A      0.352067    92A      0.361551  
      93A      0.366458    94A      0.378609    95A      0.390084  
      96A      0.400641    97A      0.451779    98A      0.460252  
      99A      0.466666   100A      0.478227   101A      0.492287  
     102A      0.507386   103A      0.520681   104A      0.533783  
     105A      0.538295   106A      0.544645   107A      0.557436  
     108A      0.570841   109A      0.572534   110A      0.580199  
     111A      0.594327   112A      0.608497   113A      0.611287  
     114A      0.629333   115A      0.633437   116A      0.640374  
     117A      0.646513   118A      0.658070   119A      0.670226  
     120A      0.675496   121A      0.682415   122A      0.695502  
     123A      0.704567   124A      0.710689   125A      0.724538  
     126A      0.729675   127A      0.744466   128A      0.749821  
     129A      0.761225   130A      0.765992   131A      0.771990  
     132A      0.780535   133A      0.781633   134A      0.786098  
     135A      0.790175   136A      0.795209   137A      0.802049  
     138A      0.805622   139A      0.825919   140A      0.830742  
     141A      0.837720   142A      0.845663   143A      0.848798  
     144A      0.856853   145A      0.873999   146A      0.886474  
     147A      0.895807   148A      0.899075   149A      0.910338  
     150A      0.929539   151A      0.941018   152A      0.941952  
     153A      0.954833   154A      0.978615   155A      0.979034  
     156A      0.992702   157A      1.012687   158A      1.020563  
     159A      1.029470   160A      1.038693   161A      1.053794  
     162A      1.059625   163A      1.075444   164A      1.080501  
     165A      1.114264   166A      1.117193   167A      1.122500  
     168A      1.128950   169A      1.143817   170A      1.154847  
     171A      1.163721   172A      1.174451   173A      1.183321  
     174A      1.186505   175A      1.198173   176A      1.205469  
     177A      1.222453   178A      1.229017   179A      1.243554  
     180A      1.250733   181A      1.259410   182A      1.278912  
     183A      1.294919   184A      1.317534   185A      1.334310  
     186A      1.352991   187A      1.374994   188A      1.413859  
     189A      1.435590   190A      1.459395   191A      1.479907  
     192A      1.490866   193A      1.508538   194A      1.512820  
     195A      1.531429   196A      1.547093   197A      1.554842  
     198A      1.572625   199A      1.573367   200A      1.589779  
     201A      1.597988   202A      1.609117   203A      1.628395  
     204A      1.642781   205A      1.646005   206A      1.662168  
     207A      1.675000   208A      1.681422   209A      1.699423  
     210A      1.706684   211A      1.721687   212A      1.731598  
     213A      1.744612   214A      1.757018   215A      1.760925  
     216A      1.765714   217A      1.783993   218A      1.784424  
     219A      1.797126   220A      1.799190   221A      1.806279  
     222A      1.813784   223A      1.823638   224A      1.830438  
     225A      1.839762   226A      1.840544   227A      1.848429  
     228A      1.859139   229A      1.866822   230A      1.874816  
     231A      1.878614   232A      1.887817   233A      1.903979  
     234A      1.908911   235A      1.919894   236A      1.934720  
     237A      1.951841   238A      1.960770   239A      1.969712  
     240A      1.987020   241A      2.000735   242A      2.005125  
     243A      2.009914   244A      2.016262   245A      2.028997  
     246A      2.032127   247A      2.037591   248A      2.045365  
     249A      2.064082   250A      2.076169   251A      2.078622  
     252A      2.098916   253A      2.114585   254A      2.126229  
     255A      2.153918   256A      2.163039   257A      2.180819  
     258A      2.186846   259A      2.205363   260A      2.219837  
     261A      2.226587   262A      2.242863   263A      2.256473  
     264A      2.285413   265A      2.292165   266A      2.303803  
     267A      2.312625   268A      2.318053   269A      2.346147  
     270A      2.357542   271A      2.369747   272A      2.379429  
     273A      2.389920   274A      2.402830   275A      2.425706  
     276A      2.456067   277A      2.479850   278A      2.487601  
     279A      2.504328   280A      2.528467   281A      2.541417  
     282A      2.565028   283A      2.577428   284A      2.595866  
     285A      2.608310   286A      2.639916   287A      2.659244  
     288A      2.665451   289A      2.670861   290A      2.677551  
     291A      2.689158   292A      2.704280   293A      2.714153  
     294A      2.727601   295A      2.736357   296A      2.763537  
     297A      2.773526   298A      2.788380   299A      2.809544  
     300A      2.828691   301A      2.845746   302A      2.869342  
     303A      2.878579   304A      2.901690   305A      2.931128  
     306A      2.952466   307A      2.966783   308A      2.978125  
     309A      3.027905   310A      3.101000   311A      3.117551  
     312A      3.139835   313A      3.177729   314A      3.208332  
     315A      3.277551   316A      3.600830   317A      3.641119  
     318A      3.679961   319A      3.855961  

    Final Occupation by Irrep:
              A 
    DOCC [    59 ]

  @RHF Final Energy:  -683.16690186151050

   => Energetics <=

    Nuclear Repulsion Energy =           1155.3428104943739072
    One-Electron Energy =               -3205.2218809864211835
    Two-Electron Energy =                1366.7121686305370076
    Total Energy =                       -683.1669018615104960

Computation Completed


Properties will be evaluated at   0.000000,   0.000000,   0.000000 [a0]

Properties computed using the SCF density matrix

  Nuclear Dipole Moment: [e a0]
     X:     9.3417      Y:    -1.2473      Z:    -2.1031

  Electronic Dipole Moment: [e a0]
     X:    -6.9768      Y:    -0.0662      Z:     4.5637

  Dipole Moment: [e a0]
     X:     2.3648      Y:    -1.3135      Z:     2.4607     Total:     3.6569

  Dipole Moment: [D]
     X:     6.0108      Y:    -3.3387      Z:     6.2544     Total:     9.2948


*** tstop() called on ds3 at Mon Apr 27 16:02:20 2020
Module time:
	user time   =     829.12 seconds =      13.82 minutes
	system time =     244.06 seconds =       4.07 minutes
	total time  =       5065 seconds =      84.42 minutes
Total time:
	user time   =     829.12 seconds =      13.82 minutes
	system time =     244.06 seconds =       4.07 minutes
	total time  =       5065 seconds =      84.42 minutes
                                     G D M A

                                 by Anthony Stone

                           version 2.2.06, 22 June 2011

               Distributed Multipoles from Gaussian wavefunctions


Starting at 16:2:21 on 27 Apr 2020  


Using SCF density matrix from file ./SSI/SSI-009ARG-031TRP-1-dimer.test.9433.fchk


                         Distributed Multipole Analysis

Standard DMA

Positions and radii in angstrom
Multipole moments in atomic units, ea_0^k for rank k

C          x =  2.553873  y =  1.135041  z =  0.236275 angstrom
           Maximum rank =  0   Radius =  0.650 angstrom
                   Q00  =  -0.027546

C          x =  3.045873  y =  1.424041  z = -1.165725 angstrom
           Maximum rank =  0   Radius =  0.650 angstrom
                   Q00  =  -0.188152

C          x =  1.600873  y = -0.881959  z =  1.320275 angstrom
           Maximum rank =  0   Radius =  0.650 angstrom
                   Q00  =   1.079417

N          x =  2.316873  y = -0.303959  z =  0.371275 angstrom
           Maximum rank =  0   Radius =  0.650 angstrom
                   Q00  =  -0.490713

N          x =  0.982873  y = -0.155959  z =  2.230275 angstrom
           Maximum rank =  0   Radius =  0.650 angstrom
                   Q00  =  -0.562847

N          x =  1.481873  y = -2.194959  z =  1.333275 angstrom
           Maximum rank =  0   Radius =  0.650 angstrom
                   Q00  =  -0.584816

H          x =  3.307873  y =  1.451041  z =  0.960275 angstrom
           Maximum rank =  0   Radius =  0.325 angstrom
                   Q00  =   0.091290

H          x =  1.631873  y =  1.696041  z =  0.401275 angstrom
           Maximum rank =  0   Radius =  0.325 angstrom
                   Q00  =   0.099562

H          x =  2.252873  y =  1.173041  z = -1.869725 angstrom
           Maximum rank =  0   Radius =  0.325 angstrom
                   Q00  =   0.106804

H          x =  3.900873  y =  0.778041  z = -1.354725 angstrom
           Maximum rank =  0   Radius =  0.325 angstrom
                   Q00  =   0.081627

H          x =  2.842873  y = -0.925959  z = -0.242725 angstrom
           Maximum rank =  0   Radius =  0.325 angstrom
                   Q00  =   0.222212

H          x =  1.060873  y =  0.845041  z =  2.200275 angstrom
           Maximum rank =  0   Radius =  0.325 angstrom
                   Q00  =   0.270702

H          x =  0.414873  y = -0.596959  z =  2.934275 angstrom
           Maximum rank =  0   Radius =  0.325 angstrom
                   Q00  =   0.257180

H          x =  1.980873  y = -2.739959  z =  0.647275 angstrom
           Maximum rank =  0   Radius =  0.325 angstrom
                   Q00  =   0.259363

H          x =  0.924873  y = -2.652959  z =  2.035275 angstrom
           Maximum rank =  0   Radius =  0.325 angstrom
                   Q00  =   0.260663

H          x =  3.343645  y =  2.474541  z = -1.299105 angstrom
           Maximum rank =  0   Radius =  0.325 angstrom
                   Q00  =   0.132769

C          x = -1.381127  y = -2.723959  z = -1.293725 angstrom
           Maximum rank =  0   Radius =  0.650 angstrom
                   Q00  =  -0.198174

C          x = -1.562127  y =  0.673041  z =  0.257275 angstrom
           Maximum rank =  0   Radius =  0.650 angstrom
                   Q00  =   0.237741

C          x = -1.224127  y = -0.163959  z = -0.834725 angstrom
           Maximum rank =  0   Radius =  0.650 angstrom
                   Q00  =  -0.066277

C          x = -1.533127  y = -1.510959  z = -0.454725 angstrom
           Maximum rank =  0   Radius =  0.650 angstrom
                   Q00  =  -0.123972

C          x = -2.086127  y = -1.442959  z =  0.786275 angstrom
           Maximum rank =  0   Radius =  0.650 angstrom
                   Q00  =   0.043387

C          x = -0.816127  y =  2.597041  z = -0.909725 angstrom
           Maximum rank =  0   Radius =  0.650 angstrom
                   Q00  =  -0.077016

C          x = -1.378127  y =  2.048041  z =  0.226275 angstrom
           Maximum rank =  0   Radius =  0.650 angstrom
                   Q00  =  -0.134096

C          x = -0.496127  y =  1.797041  z = -2.011725 angstrom
           Maximum rank =  0   Radius =  0.650 angstrom
                   Q00  =  -0.059803

C          x = -0.689127  y =  0.421041  z = -1.985725 angstrom
           Maximum rank =  0   Radius =  0.650 angstrom
                   Q00  =  -0.103171

N          x = -2.101127  y = -0.137959  z =  1.221275 angstrom
           Maximum rank =  0   Radius =  0.650 angstrom
                   Q00  =  -0.488101

H          x = -0.639127  y =  3.664041  z = -0.959725 angstrom
           Maximum rank =  0   Radius =  0.325 angstrom
                   Q00  =   0.083678

H          x = -1.637127  y =  2.660041  z =  1.078275 angstrom
           Maximum rank =  0   Radius =  0.325 angstrom
                   Q00  =   0.079695

H          x = -0.072127  y =  2.254041  z = -2.886725 angstrom
           Maximum rank =  0   Radius =  0.325 angstrom
                   Q00  =   0.076544

H          x = -0.422127  y = -0.191959  z = -2.831725 angstrom
           Maximum rank =  0   Radius =  0.325 angstrom
                   Q00  =   0.081746

H          x = -2.483127  y =  0.162041  z =  2.112275 angstrom
           Maximum rank =  0   Radius =  0.325 angstrom
                   Q00  =   0.223979

H          x = -2.461127  y = -2.293959  z =  1.347275 angstrom
           Maximum rank =  0   Radius =  0.325 angstrom
                   Q00  =   0.105568

H          x = -1.281127  y = -3.596959  z = -0.645725 angstrom
           Maximum rank =  0   Radius =  0.325 angstrom
                   Q00  =   0.098139

H          x = -0.462127  y = -2.630959  z = -1.875725 angstrom
           Maximum rank =  0   Radius =  0.325 angstrom
                   Q00  =   0.085192

H          x = -2.230417  y = -2.867429  z = -1.977915 angstrom
           Maximum rank =  0   Radius =  0.325 angstrom
                   Q00  =   0.127424

Total multipoles referred to origin at
           x =   0.000000,  y =    0.000000,  z =    0.000000 angstrom
                   Q00  =   1.000000

Finished at 16:2:21 on 27 Apr 2020  

  DMA results are available in the Python driver through the
	  variable('DMA DISTRIBUTED MULTIPOLES')
  and
	  variable('DMA TOTAL MULTIPOLES')
  commands.


    Psi4 stopped on: Monday, 27 April 2020 04:02PM
    Psi4 wall time for execution: 1:24:25.96

*** Psi4 exiting successfully. Buy a developer a beer!
