
    -----------------------------------------------------------------------
          Psi4: An Open-Source Ab Initio Electronic Structure Package
                               Psi4 1.3.2 release

                         Git: Rev {HEAD} ecbda83 


    R. M. Parrish, L. A. Burns, D. G. A. Smith, A. C. Simmonett,
    A. E. DePrince III, E. G. Hohenstein, U. Bozkaya, A. Yu. Sokolov,
    R. Di Remigio, R. M. Richard, J. F. Gonthier, A. M. James,
    H. R. McAlexander, A. Kumar, M. Saitow, X. Wang, B. P. Pritchard,
    P. Verma, H. F. Schaefer III, K. Patkowski, R. A. King, E. F. Valeev,
    F. A. Evangelista, J. M. Turney, T. D. Crawford, and C. D. Sherrill,
    J. Chem. Theory Comput. 13(7) pp 3185--3197 (2017).
    (doi: 10.1021/acs.jctc.7b00174)


                         Additional Contributions by
    P. Kraus, H. Kruse, M. H. Lechner, M. C. Schieber, R. A. Shaw,
    A. Alenaizan, R. Galvelis, Z. L. Glick, S. Lehtola, and J. P. Misiewicz

    -----------------------------------------------------------------------


    Psi4 started on: Monday, 27 April 2020 01:00PM

    Process ID: 4931
    Host:       ds3
    PSIDATADIR: /theoryfs2/ds/metcalf/miniconda2/envs/tf2gpu/share/psi4
    Memory:     500.0 MiB
    Threads:    1
    
  ==> Input File <==

--------------------------------------------------------------------------
import numpy as np
set {scf_type pk
basis cc-pvdz
d_convergence 10
gdma_switch   0
gdma_limit    0
gdma_origin   [ 0.0,  0.0,  0.0 ]
}
molecule test {
    units Angstrom
    0 1
    --
    0 1
    C                2.528751460178648     1.013638096175995     1.126678630957527
    C                2.995751460178647     2.229638096175995     1.945678630957527
    C                3.663751460178647     0.056638096175995     0.740678630957527
    H                1.779751460178647     0.463638096175995     1.696678630957527
    H                2.056751460178648     1.382638096175995     0.214678630957527
    H                3.709751460178648     2.795638096175995     1.346678630957527
    H                4.105751460178648    -0.398361903824005     1.594678630957527
    H                3.489027460178648     1.904301096175995     2.873488630957527
    H                2.164495460178648     2.919007096175995     2.154928630957527
    H                3.247825460178648    -0.750705903824005     0.120028630957527
    H                4.480286460178648     0.564369096175995     0.206378630957527
    C               -0.811248539821352    -2.620361903824005    -1.701321369042473
    C               -0.865248539821352     1.034638096175995    -0.618321369042473
    C               -1.983248539821352     1.062638096175995     0.209678630957527
    C               -0.488248539821352    -0.162361903824005    -1.240321369042473
    C               -1.210248539821352    -1.332361903824005    -1.024321369042473
    C               -2.710248539821352    -0.107361903824005     0.427678630957527
    C               -2.319248539821352    -1.299361903824005    -0.177321369042473
    H               -0.297248539821352     1.937638096175995    -0.791321369042473
    H               -2.290248539821352     1.986638096175995     0.678678630957527
    H                0.369751460178648    -0.172361903824005    -1.899321369042473
    H               -3.573248539821352    -0.098361903824005     1.076678630957527
    H               -1.023248539821352    -3.456361903824005    -1.032321369042473
    H                0.266751460178648    -2.605361903824005    -1.871321369042473
    H               -2.887248539821352    -2.200361903824005     0.000678630957527
    H               -1.316833759821352    -2.788172903824005    -2.663721369042473

}
e, wfn = energy('scf', return_wfn=True)
gdma(wfn)
dmavals = variable('DMA DISTRIBUTED MULTIPOLES')
charges = np.array(dmavals)
print(charges)
np.save('SSI-048LEU-070PHE-1-dimer.npy', np.array(charges))--------------------------------------------------------------------------

*** tstart() called on ds3
*** at Mon Apr 27 13:00:15 2020

   => Loading Basis Set <=

    Name: CC-PVDZ
    Role: ORBITAL
    Keyword: BASIS
    atoms 1-3, 12-18  entry C          line   138 file /theoryfs2/ds/metcalf/miniconda2/envs/tf2gpu/share/psi4/basis/cc-pvdz.gbs 
    atoms 4-11, 19-26 entry H          line    22 file /theoryfs2/ds/metcalf/miniconda2/envs/tf2gpu/share/psi4/basis/cc-pvdz.gbs 


         ---------------------------------------------------------
                                   SCF
               by Justin Turney, Rob Parrish, Andy Simmonett
                          and Daniel G. A. Smith
                              RHF Reference
                        1 Threads,    500 MiB Core
         ---------------------------------------------------------

  ==> Geometry <==

    Molecular point group: c1
    Full point group: C1

    Geometry (in Angstrom), charge = 0, multiplicity = 1:

       Center              X                  Y                   Z               Mass       
    ------------   -----------------  -----------------  -----------------  -----------------
         C            2.528751460179     1.013638096176     1.126678630958    12.000000000000
         C            2.995751460179     2.229638096176     1.945678630958    12.000000000000
         C            3.663751460179     0.056638096176     0.740678630958    12.000000000000
         H            1.779751460179     0.463638096176     1.696678630958     1.007825032230
         H            2.056751460179     1.382638096176     0.214678630958     1.007825032230
         H            3.709751460179     2.795638096176     1.346678630958     1.007825032230
         H            4.105751460179    -0.398361903824     1.594678630958     1.007825032230
         H            3.489027460179     1.904301096176     2.873488630958     1.007825032230
         H            2.164495460179     2.919007096176     2.154928630958     1.007825032230
         H            3.247825460179    -0.750705903824     0.120028630958     1.007825032230
         H            4.480286460179     0.564369096176     0.206378630958     1.007825032230
         C           -0.811248539821    -2.620361903824    -1.701321369042    12.000000000000
         C           -0.865248539821     1.034638096176    -0.618321369042    12.000000000000
         C           -1.983248539821     1.062638096176     0.209678630958    12.000000000000
         C           -0.488248539821    -0.162361903824    -1.240321369042    12.000000000000
         C           -1.210248539821    -1.332361903824    -1.024321369042    12.000000000000
         C           -2.710248539821    -0.107361903824     0.427678630958    12.000000000000
         C           -2.319248539821    -1.299361903824    -0.177321369042    12.000000000000
         H           -0.297248539821     1.937638096176    -0.791321369042     1.007825032230
         H           -2.290248539821     1.986638096176     0.678678630958     1.007825032230
         H            0.369751460179    -0.172361903824    -1.899321369042     1.007825032230
         H           -3.573248539821    -0.098361903824     1.076678630958     1.007825032230
         H           -1.023248539821    -3.456361903824    -1.032321369042     1.007825032230
         H            0.266751460179    -2.605361903824    -1.871321369042     1.007825032230
         H           -2.887248539821    -2.200361903824     0.000678630958     1.007825032230
         H           -1.316833759821    -2.788172903824    -2.663721369042     1.007825032230

  Running in c1 symmetry.

  Rotational constants: A =      0.05683  B =      0.01837  C =      0.01517 [cm^-1]
  Rotational constants: A =   1703.59246  B =    550.61295  C =    454.80853 [MHz]
  Nuclear repulsion =  479.168494994631715

  Charge       = 0
  Multiplicity = 1
  Electrons    = 76
  Nalpha       = 38
  Nbeta        = 38

  ==> Algorithm <==

  SCF Algorithm Type is PK.
  DIIS enabled.
  MOM disabled.
  Fractional occupation disabled.
  Guess Type is SAD.
  Energy threshold   = 1.00e-06
  Density threshold  = 1.00e-10
  Integral threshold = 0.00e+00

  ==> Primary Basis <==

  Basis Set: CC-PVDZ
    Blend: CC-PVDZ
    Number of shells: 108
    Number of basis function: 220
    Number of Cartesian functions: 230
    Spherical Harmonics?: true
    Max angular momentum: 2

  ==> Pre-Iterations <==

   -------------------------------------------------------
    Irrep   Nso     Nmo     Nalpha   Nbeta   Ndocc  Nsocc
   -------------------------------------------------------
     A        220     220       0       0       0       0
   -------------------------------------------------------
    Total     220     220      38      38      38       0
   -------------------------------------------------------

  ==> Integral Setup <==

  Using integral reordering PK algorithm.
  Sizing the integral batches needed.
  Building batch lookup table.
   Calculation information:
      Number of atoms:                  26
      Number of AO shells:             108
      Number of primitives:            300
      Number of atomic orbitals:       230
      Number of basis functions:       220

      Integral cutoff                 1.00e-12
      Number of threads:                 1

	Batch   1 pq = [       0,    9405] index = [             0,44231715] size =     44231715
	Batch   2 pq = [    9405,   13301] index = [      44231715,88464951] size =     44233236
	Batch   3 pq = [   13301,   16290] index = [      88464951,132690195] size =     44225244
	Batch   4 pq = [   16290,   18810] index = [     132690195,176917455] size =     44227260
	Batch   5 pq = [   18810,   21030] index = [     176917455,221140965] size =     44223510
	Batch   6 pq = [   21030,   23037] index = [     221140965,265363203] size =     44222238
	Batch   7 pq = [   23037,   24310] index = [     265363203,295500205] size =     30137002
  Task number: 27
  Buffer size: 11059200
  Buffer per thread: 2
  We computed 14562418 shell quartets total.
  Whereas there are 17325441 unique shell quartets.

  ==> DiskJK: Disk-Based J/K Matrices <==

    J tasked:                  Yes
    K tasked:                  Yes
    wK tasked:                  No
    Memory [MiB]:              375
    Schwarz Cutoff:          1E-12

    OpenMP threads:              1

  Minimum eigenvalue in the overlap matrix is 3.1542057336E-04.
  Using Symmetric Orthogonalization.

  SCF Guess: Superposition of Atomic Densities via on-the-fly atomic UHF.

  ==> Iterations <==

                        Total Energy        Delta E     RMS |[F,P]|

   @RHF iter SAD:  -386.80944069010917   -3.86809e+02   0.00000e+00 
   @RHF iter   1:  -387.77451370172821   -9.65073e-01   2.74034e-03 DIIS
   @RHF iter   2:  -387.99236415448382   -2.17850e-01   1.15018e-03 DIIS
   @RHF iter   3:  -388.02719579040678   -3.48316e-02   2.48694e-04 DIIS
   @RHF iter   4:  -388.03005714287838   -2.86135e-03   5.24101e-05 DIIS
   @RHF iter   5:  -388.03014648117863   -8.93383e-05   1.65530e-05 DIIS
   @RHF iter   6:  -388.03015505287880   -8.57170e-06   4.86931e-06 DIIS
   @RHF iter   7:  -388.03015589446954   -8.41591e-07   1.19285e-06 DIIS
   @RHF iter   8:  -388.03015595955213   -6.50826e-08   3.07874e-07 DIIS
   @RHF iter   9:  -388.03015596905379   -9.50166e-09   1.29165e-07 DIIS
   @RHF iter  10:  -388.03015597133043   -2.27664e-09   6.40871e-08 DIIS
   @RHF iter  11:  -388.03015597200692   -6.76494e-10   2.34119e-08 DIIS
   @RHF iter  12:  -388.03015597209992   -9.29958e-11   8.05505e-09 DIIS
   @RHF iter  13:  -388.03015597210793   -8.01492e-12   3.36186e-09 DIIS
   @RHF iter  14:  -388.03015597210981   -1.87583e-12   8.56432e-10 DIIS
   @RHF iter  15:  -388.03015597210810    1.70530e-12   3.13130e-10 DIIS
   @RHF iter  16:  -388.03015597210623    1.87583e-12   1.10577e-10 DIIS
   @RHF iter  17:  -388.03015597210936   -3.12639e-12   4.73777e-11 DIIS
  Energy and wave function converged.


  ==> Post-Iterations <==

    Orbital Energies [Eh]
    ---------------------

    Doubly Occupied:                                                      

       1A    -11.240882     2A    -11.236730     3A    -11.235842  
       4A    -11.231858     5A    -11.231345     6A    -11.230522  
       7A    -11.229943     8A    -11.217027     9A    -11.215180  
      10A    -11.212461    11A     -1.151443    12A     -1.046675  
      13A     -1.043617    14A     -1.010375    15A     -0.930797  
      16A     -0.922521    17A     -0.824965    18A     -0.796726  
      19A     -0.793557    20A     -0.690543    21A     -0.630793  
      22A     -0.630094    23A     -0.620153    24A     -0.589139  
      25A     -0.581659    26A     -0.576428    27A     -0.562489  
      28A     -0.548776    29A     -0.534787    30A     -0.528023  
      31A     -0.487506    32A     -0.484955    33A     -0.481161  
      34A     -0.469607    35A     -0.465260    36A     -0.463899  
      37A     -0.330780    38A     -0.322550  

    Virtual:                                                              

      39A      0.134292    40A      0.139213    41A      0.168424  
      42A      0.192501    43A      0.197689    44A      0.213677  
      45A      0.226777    46A      0.235175    47A      0.245720  
      48A      0.255606    49A      0.258605    50A      0.264311  
      51A      0.275747    52A      0.283497    53A      0.289993  
      54A      0.305608    55A      0.307733    56A      0.330441  
      57A      0.364993    58A      0.368292    59A      0.379563  
      60A      0.427929    61A      0.451072    62A      0.461738  
      63A      0.479836    64A      0.495761    65A      0.561311  
      66A      0.576971    67A      0.588187    68A      0.604649  
      69A      0.611598    70A      0.617465    71A      0.621592  
      72A      0.647616    73A      0.683149    74A      0.686668  
      75A      0.702530    76A      0.720596    77A      0.738528  
      78A      0.740076    79A      0.745643    80A      0.759045  
      81A      0.772392    82A      0.775547    83A      0.793835  
      84A      0.805965    85A      0.814164    86A      0.836104  
      87A      0.841892    88A      0.864975    89A      0.865508  
      90A      0.874803    91A      0.881026    92A      0.893859  
      93A      0.896601    94A      0.897185    95A      0.898911  
      96A      0.907114    97A      0.907783    98A      0.909131  
      99A      0.923002   100A      0.932204   101A      0.936829  
     102A      0.947570   103A      0.951760   104A      0.981176  
     105A      0.986777   106A      1.002856   107A      1.012753  
     108A      1.056605   109A      1.118573   110A      1.127880  
     111A      1.131565   112A      1.136759   113A      1.152804  
     114A      1.157275   115A      1.185937   116A      1.216547  
     117A      1.240840   118A      1.241775   119A      1.252471  
     120A      1.258031   121A      1.296479   122A      1.303467  
     123A      1.320778   124A      1.321798   125A      1.380155  
     126A      1.412055   127A      1.468967   128A      1.485156  
     129A      1.506283   130A      1.516730   131A      1.526568  
     132A      1.559436   133A      1.602072   134A      1.627006  
     135A      1.675305   136A      1.685983   137A      1.694100  
     138A      1.700960   139A      1.703347   140A      1.734094  
     141A      1.749992   142A      1.765094   143A      1.791730  
     144A      1.807737   145A      1.853611   146A      1.862504  
     147A      1.876642   148A      1.884205   149A      1.887753  
     150A      1.899007   151A      1.909361   152A      1.915520  
     153A      1.919954   154A      1.922717   155A      1.938332  
     156A      1.944671   157A      1.948299   158A      1.951103  
     159A      1.963219   160A      1.975074   161A      1.977872  
     162A      1.983092   163A      1.987546   164A      1.991043  
     165A      1.992293   166A      2.004437   167A      2.035648  
     168A      2.044415   169A      2.066725   170A      2.072382  
     171A      2.106013   172A      2.130770   173A      2.141267  
     174A      2.143660   175A      2.153290   176A      2.161207  
     177A      2.172843   178A      2.181963   179A      2.257316  
     180A      2.277431   181A      2.288819   182A      2.296412  
     183A      2.296903   184A      2.304595   185A      2.312849  
     186A      2.323855   187A      2.336980   188A      2.356203  
     189A      2.468359   190A      2.475409   191A      2.488985  
     192A      2.498460   193A      2.530226   194A      2.540884  
     195A      2.591015   196A      2.608966   197A      2.618641  
     198A      2.625941   199A      2.739121   200A      2.751938  
     201A      2.755019   202A      2.756720   203A      2.766122  
     204A      2.782728   205A      2.808714   206A      2.812543  
     207A      2.816125   208A      2.847133   209A      2.868566  
     210A      2.920641   211A      2.969874   212A      2.979415  
     213A      3.003301   214A      3.008155   215A      3.017871  
     216A      3.065540   217A      3.151464   218A      3.196911  
     219A      3.291751   220A      3.960818  

    Final Occupation by Irrep:
              A 
    DOCC [    38 ]

  @RHF Final Energy:  -388.03015597210936

   => Energetics <=

    Nuclear Repulsion Energy =            479.1684949946317147
    One-Electron Energy =               -1472.7951594310313794
    Two-Electron Energy =                 605.5965084642903093
    Total Energy =                       -388.0301559721093554

Computation Completed


Properties will be evaluated at   0.000000,   0.000000,   0.000000 [a0]

Properties computed using the SCF density matrix

  Nuclear Dipole Moment: [e a0]
     X:    13.3890      Y:     1.3910      Z:     3.4739

  Electronic Dipole Moment: [e a0]
     X:   -13.4344      Y:    -1.5226      Z:    -3.5383

  Dipole Moment: [e a0]
     X:    -0.0454      Y:    -0.1315      Z:    -0.0645     Total:     0.1534

  Dipole Moment: [D]
     X:    -0.1154      Y:    -0.3343      Z:    -0.1639     Total:     0.3898


*** tstop() called on ds3 at Mon Apr 27 13:03:07 2020
Module time:
	user time   =     110.75 seconds =       1.85 minutes
	system time =      53.32 seconds =       0.89 minutes
	total time  =        172 seconds =       2.87 minutes
Total time:
	user time   =     110.75 seconds =       1.85 minutes
	system time =      53.32 seconds =       0.89 minutes
	total time  =        172 seconds =       2.87 minutes
                                     G D M A

                                 by Anthony Stone

                           version 2.2.06, 22 June 2011

               Distributed Multipoles from Gaussian wavefunctions


Starting at 13:3:7 on 27 Apr 2020   


Using SCF density matrix from file ./SSI/SSI-048LEU-070PHE-1-dimer.test.4931.fchk


                         Distributed Multipole Analysis

Standard DMA

Positions and radii in angstrom
Multipole moments in atomic units, ea_0^k for rank k

C          x =  2.528751  y =  1.013638  z =  1.126679 angstrom
           Maximum rank =  0   Radius =  0.650 angstrom
                   Q00  =  -0.068966

C          x =  2.995751  y =  2.229638  z =  1.945679 angstrom
           Maximum rank =  0   Radius =  0.650 angstrom
                   Q00  =  -0.239210

C          x =  3.663751  y =  0.056638  z =  0.740679 angstrom
           Maximum rank =  0   Radius =  0.650 angstrom
                   Q00  =  -0.262581

H          x =  1.779751  y =  0.463638  z =  1.696679 angstrom
           Maximum rank =  0   Radius =  0.325 angstrom
                   Q00  =   0.056819

H          x =  2.056751  y =  1.382638  z =  0.214679 angstrom
           Maximum rank =  0   Radius =  0.325 angstrom
                   Q00  =   0.043893

H          x =  3.709751  y =  2.795638  z =  1.346679 angstrom
           Maximum rank =  0   Radius =  0.325 angstrom
                   Q00  =   0.072681

H          x =  4.105751  y = -0.398362  z =  1.594679 angstrom
           Maximum rank =  0   Radius =  0.325 angstrom
                   Q00  =   0.082186

H          x =  3.489027  y =  1.904301  z =  2.873489 angstrom
           Maximum rank =  0   Radius =  0.325 angstrom
                   Q00  =   0.077639

H          x =  2.164495  y =  2.919007  z =  2.154929 angstrom
           Maximum rank =  0   Radius =  0.325 angstrom
                   Q00  =   0.083806

H          x =  3.247825  y = -0.750706  z =  0.120029 angstrom
           Maximum rank =  0   Radius =  0.325 angstrom
                   Q00  =   0.080215

H          x =  4.480286  y =  0.564369  z =  0.206379 angstrom
           Maximum rank =  0   Radius =  0.325 angstrom
                   Q00  =   0.073975

C          x = -0.811249  y = -2.620362  z = -1.701321 angstrom
           Maximum rank =  0   Radius =  0.650 angstrom
                   Q00  =  -0.199613

C          x = -0.865249  y =  1.034638  z = -0.618321 angstrom
           Maximum rank =  0   Radius =  0.650 angstrom
                   Q00  =  -0.078490

C          x = -1.983249  y =  1.062638  z =  0.209679 angstrom
           Maximum rank =  0   Radius =  0.650 angstrom
                   Q00  =  -0.088047

C          x = -0.488249  y = -0.162362  z = -1.240321 angstrom
           Maximum rank =  0   Radius =  0.650 angstrom
                   Q00  =  -0.017715

C          x = -1.210249  y = -1.332362  z = -1.024321 angstrom
           Maximum rank =  0   Radius =  0.650 angstrom
                   Q00  =  -0.103130

C          x = -2.710249  y = -0.107362  z =  0.427679 angstrom
           Maximum rank =  0   Radius =  0.650 angstrom
                   Q00  =  -0.077905

C          x = -2.319249  y = -1.299362  z = -0.177321 angstrom
           Maximum rank =  0   Radius =  0.650 angstrom
                   Q00  =  -0.044986

H          x = -0.297249  y =  1.937638  z = -0.791321 angstrom
           Maximum rank =  0   Radius =  0.325 angstrom
                   Q00  =   0.066396

H          x = -2.290249  y =  1.986638  z =  0.678679 angstrom
           Maximum rank =  0   Radius =  0.325 angstrom
                   Q00  =   0.062090

H          x =  0.369751  y = -0.172362  z = -1.899321 angstrom
           Maximum rank =  0   Radius =  0.325 angstrom
                   Q00  =   0.057917

H          x = -3.573249  y = -0.098362  z =  1.076679 angstrom
           Maximum rank =  0   Radius =  0.325 angstrom
                   Q00  =   0.065002

H          x = -1.023249  y = -3.456362  z = -1.032321 angstrom
           Maximum rank =  0   Radius =  0.325 angstrom
                   Q00  =   0.098360

H          x =  0.266751  y = -2.605362  z = -1.871321 angstrom
           Maximum rank =  0   Radius =  0.325 angstrom
                   Q00  =   0.096983

H          x = -2.887249  y = -2.200362  z =  0.000679 angstrom
           Maximum rank =  0   Radius =  0.325 angstrom
                   Q00  =   0.056901

H          x = -1.316834  y = -2.788173  z = -2.663721 angstrom
           Maximum rank =  0   Radius =  0.325 angstrom
                   Q00  =   0.105781

Total multipoles referred to origin at
           x =   0.000000,  y =    0.000000,  z =    0.000000 angstrom
                   Q00  =  -0.000000

Finished at 13:3:7 on 27 Apr 2020   

  DMA results are available in the Python driver through the
	  variable('DMA DISTRIBUTED MULTIPOLES')
  and
	  variable('DMA TOTAL MULTIPOLES')
  commands.


    Psi4 stopped on: Monday, 27 April 2020 01:03PM
    Psi4 wall time for execution: 0:02:51.84

*** Psi4 exiting successfully. Buy a developer a beer!
