
    -----------------------------------------------------------------------
          Psi4: An Open-Source Ab Initio Electronic Structure Package
                               Psi4 1.3.2 release

                         Git: Rev {HEAD} ecbda83 


    R. M. Parrish, L. A. Burns, D. G. A. Smith, A. C. Simmonett,
    A. E. DePrince III, E. G. Hohenstein, U. Bozkaya, A. Yu. Sokolov,
    R. Di Remigio, R. M. Richard, J. F. Gonthier, A. M. James,
    H. R. McAlexander, A. Kumar, M. Saitow, X. Wang, B. P. Pritchard,
    P. Verma, H. F. Schaefer III, K. Patkowski, R. A. King, E. F. Valeev,
    F. A. Evangelista, J. M. Turney, T. D. Crawford, and C. D. Sherrill,
    J. Chem. Theory Comput. 13(7) pp 3185--3197 (2017).
    (doi: 10.1021/acs.jctc.7b00174)


                         Additional Contributions by
    P. Kraus, H. Kruse, M. H. Lechner, M. C. Schieber, R. A. Shaw,
    A. Alenaizan, R. Galvelis, Z. L. Glick, S. Lehtola, and J. P. Misiewicz

    -----------------------------------------------------------------------


    Psi4 started on: Monday, 27 April 2020 06:34AM

    Process ID: 8539
    Host:       ds3
    PSIDATADIR: /theoryfs2/ds/metcalf/miniconda2/envs/tf2gpu/share/psi4
    Memory:     500.0 MiB
    Threads:    1
    
  ==> Input File <==

--------------------------------------------------------------------------
import numpy as np
set {scf_type pk
basis cc-pvdz
d_convergence 10
gdma_switch   0
gdma_limit    0
gdma_origin   [ 0.0,  0.0,  0.0 ]
}
molecule test {
    units Angstrom
    0 1
    --
    0 1
    C               -0.378758989822505     0.963708129789781     2.880409325256398
    C                0.731241010177495     0.602708129789781     0.540409325256399
    C                0.690241010177495     1.135708129789781     1.867409325256399
    C                1.954241010177495     1.023708129789781    -0.046590674743602
    C                1.846241010177495     1.838708129789781     2.036409325256399
    C               -0.148758989822505    -0.199291870210219    -0.167590674743602
    C                0.205241010177495    -0.552291870210219    -1.461590674743601
    C                1.404241010177495    -0.119291870210219    -2.033590674743601
    C                2.299241010177495     0.672708129789781    -1.340590674743601
    N                2.605241010177495     1.775708129789781     0.893409325256398
    H               -1.066758989822505    -0.511291870210219     0.287409325256398
    H               -0.456758989822505    -1.175291870210219    -2.050590674743602
    H                1.638241010177495    -0.413291870210219    -3.049590674743602
    H                0.093241010177495     0.978708129789781     3.856409325256398
    H               -0.817758989822505    -0.024291870210219     2.752409325256399
    H                2.133241010177495     2.356708129789781     2.946409325256399
    H                3.518241010177495     2.204708129789781     0.788409325256399
    H                3.229241010177495     1.000708129789781    -1.784590674743601
    H               -1.185798989822505     1.711158129789781     2.878969325256399
    C               -3.383758989822505    -1.590291870210219    -1.029590674743601
    C               -3.643758989822505    -2.390291870210219    -2.299590674743601
    C               -2.977758989822505    -2.475291870210219     0.159409325256398
    H               -2.607758989822505    -0.857291870210219    -1.226590674743601
    H               -4.293758989822506    -1.051291870210219    -0.769590674743602
    H               -2.764758989822505    -3.008291870210219    -2.496590674743601
    H               -3.665758989822505    -3.309291870210219     0.277409325256398
    H               -1.986758989822505    -2.888291870210219    -0.031590674743602
    H               -3.802778989822505    -1.702201870210219    -3.142940674743601
    H               -4.498738989822505    -3.058241870210219    -2.118340674743601
    H               -2.968288989822505    -1.952711870210219     1.127309325256399

}
e, wfn = energy('scf', return_wfn=True)
gdma(wfn)
dmavals = variable('DMA DISTRIBUTED MULTIPOLES')
charges = np.array(dmavals)
print(charges)
np.save('SSI-003TRP-167GLN-1-dimer.npy', np.array(charges))--------------------------------------------------------------------------

*** tstart() called on ds3
*** at Mon Apr 27 06:34:20 2020

   => Loading Basis Set <=

    Name: CC-PVDZ
    Role: ORBITAL
    Keyword: BASIS
    atoms 1-9, 20-22   entry C          line   138 file /theoryfs2/ds/metcalf/miniconda2/envs/tf2gpu/share/psi4/basis/cc-pvdz.gbs 
    atoms 10           entry N          line   168 file /theoryfs2/ds/metcalf/miniconda2/envs/tf2gpu/share/psi4/basis/cc-pvdz.gbs 
    atoms 11-19, 23-30 entry H          line    22 file /theoryfs2/ds/metcalf/miniconda2/envs/tf2gpu/share/psi4/basis/cc-pvdz.gbs 


         ---------------------------------------------------------
                                   SCF
               by Justin Turney, Rob Parrish, Andy Simmonett
                          and Daniel G. A. Smith
                              RHF Reference
                        1 Threads,    500 MiB Core
         ---------------------------------------------------------

  ==> Geometry <==

    Molecular point group: c1
    Full point group: C1

    Geometry (in Angstrom), charge = 0, multiplicity = 1:

       Center              X                  Y                   Z               Mass       
    ------------   -----------------  -----------------  -----------------  -----------------
         C           -0.378758989823     0.963708129790     2.880409325256    12.000000000000
         C            0.731241010177     0.602708129790     0.540409325256    12.000000000000
         C            0.690241010177     1.135708129790     1.867409325256    12.000000000000
         C            1.954241010177     1.023708129790    -0.046590674744    12.000000000000
         C            1.846241010177     1.838708129790     2.036409325256    12.000000000000
         C           -0.148758989823    -0.199291870210    -0.167590674744    12.000000000000
         C            0.205241010177    -0.552291870210    -1.461590674744    12.000000000000
         C            1.404241010177    -0.119291870210    -2.033590674744    12.000000000000
         C            2.299241010177     0.672708129790    -1.340590674744    12.000000000000
         N            2.605241010177     1.775708129790     0.893409325256    14.003074004430
         H           -1.066758989823    -0.511291870210     0.287409325256     1.007825032230
         H           -0.456758989823    -1.175291870210    -2.050590674744     1.007825032230
         H            1.638241010177    -0.413291870210    -3.049590674744     1.007825032230
         H            0.093241010177     0.978708129790     3.856409325256     1.007825032230
         H           -0.817758989823    -0.024291870210     2.752409325256     1.007825032230
         H            2.133241010177     2.356708129790     2.946409325256     1.007825032230
         H            3.518241010177     2.204708129790     0.788409325256     1.007825032230
         H            3.229241010177     1.000708129790    -1.784590674744     1.007825032230
         H           -1.185798989823     1.711158129790     2.878969325256     1.007825032230
         C           -3.383758989823    -1.590291870210    -1.029590674744    12.000000000000
         C           -3.643758989823    -2.390291870210    -2.299590674744    12.000000000000
         C           -2.977758989823    -2.475291870210     0.159409325256    12.000000000000
         H           -2.607758989823    -0.857291870210    -1.226590674744     1.007825032230
         H           -4.293758989823    -1.051291870210    -0.769590674744     1.007825032230
         H           -2.764758989823    -3.008291870210    -2.496590674744     1.007825032230
         H           -3.665758989823    -3.309291870210     0.277409325256     1.007825032230
         H           -1.986758989823    -2.888291870210    -0.031590674744     1.007825032230
         H           -3.802778989823    -1.702201870210    -3.142940674744     1.007825032230
         H           -4.498738989823    -3.058241870210    -2.118340674744     1.007825032230
         H           -2.968288989823    -1.952711870210     1.127309325256     1.007825032230

  Running in c1 symmetry.

  Rotational constants: A =      0.04024  B =      0.01344  C =      0.01036 [cm^-1]
  Rotational constants: A =   1206.47788  B =    403.05260  C =    310.49984 [MHz]
  Nuclear repulsion =  743.291011884643467

  Charge       = 0
  Multiplicity = 1
  Electrons    = 96
  Nalpha       = 48
  Nbeta        = 48

  ==> Algorithm <==

  SCF Algorithm Type is PK.
  DIIS enabled.
  MOM disabled.
  Fractional occupation disabled.
  Guess Type is SAD.
  Energy threshold   = 1.00e-06
  Density threshold  = 1.00e-10
  Integral threshold = 0.00e+00

  ==> Primary Basis <==

  Basis Set: CC-PVDZ
    Blend: CC-PVDZ
    Number of shells: 129
    Number of basis function: 267
    Number of Cartesian functions: 280
    Spherical Harmonics?: true
    Max angular momentum: 2

  ==> Pre-Iterations <==

   -------------------------------------------------------
    Irrep   Nso     Nmo     Nalpha   Nbeta   Ndocc  Nsocc
   -------------------------------------------------------
     A        267     267       0       0       0       0
   -------------------------------------------------------
    Total     267     267      48      48      48       0
   -------------------------------------------------------

  ==> Integral Setup <==

  Using integral reordering PK algorithm.
  Sizing the integral batches needed.
  Building batch lookup table.
   Calculation information:
      Number of atoms:                  30
      Number of AO shells:             129
      Number of primitives:            371
      Number of atomic orbitals:       280
      Number of basis functions:       267

      Integral cutoff                 1.00e-12
      Number of threads:                 1

	Batch   1 pq = [       0,    9405] index = [             0,44231715] size =     44231715
	Batch   2 pq = [    9405,   13301] index = [      44231715,88464951] size =     44233236
	Batch   3 pq = [   13301,   16290] index = [      88464951,132690195] size =     44225244
	Batch   4 pq = [   16290,   18810] index = [     132690195,176917455] size =     44227260
	Batch   5 pq = [   18810,   21030] index = [     176917455,221140965] size =     44223510
	Batch   6 pq = [   21030,   23037] index = [     221140965,265363203] size =     44222238
	Batch   7 pq = [   23037,   24883] index = [     265363203,309594286] size =     44231083
	Batch   8 pq = [   24883,   26601] index = [     309594286,353819901] size =     44225615
	Batch   9 pq = [   26601,   28214] index = [     353819901,398029005] size =     44209104
	Batch  10 pq = [   28214,   29740] index = [     398029005,442248670] size =     44219665
	Batch  11 pq = [   29740,   31191] index = [     442248670,486454836] size =     44206166
	Batch  12 pq = [   31191,   32578] index = [     486454836,530679331] size =     44224495
	Batch  13 pq = [   32578,   33908] index = [     530679331,574893186] size =     44213855
	Batch  14 pq = [   33908,   35188] index = [     574893186,619115266] size =     44222080
	Batch  15 pq = [   35188,   35778] index = [     619115266,640050531] size =     20935265
  Task number: 58
  Buffer size: 11059200
  Buffer per thread: 2
  We computed 32838578 shell quartets total.
  Whereas there are 35158305 unique shell quartets.

  ==> DiskJK: Disk-Based J/K Matrices <==

    J tasked:                  Yes
    K tasked:                  Yes
    wK tasked:                  No
    Memory [MiB]:              375
    Schwarz Cutoff:          1E-12

    OpenMP threads:              1

  Minimum eigenvalue in the overlap matrix is 2.2402484551E-04.
  Using Symmetric Orthogonalization.

  SCF Guess: Superposition of Atomic Densities via on-the-fly atomic UHF.

  ==> Iterations <==

                        Total Energy        Delta E     RMS |[F,P]|

   @RHF iter SAD:  -518.20467968669061   -5.18205e+02   0.00000e+00 
   @RHF iter   1:  -518.48587289924649   -2.81193e-01   2.51568e-03 DIIS
   @RHF iter   2:  -518.74741598473747   -2.61543e-01   1.13218e-03 DIIS
   @RHF iter   3:  -518.79564005398061   -4.82241e-02   2.96737e-04 DIIS
   @RHF iter   4:  -518.80000387298128   -4.36382e-03   1.35793e-04 DIIS
   @RHF iter   5:  -518.80074431573621   -7.40443e-04   1.93657e-05 DIIS
   @RHF iter   6:  -518.80077529304094   -3.09773e-05   8.68431e-06 DIIS
   @RHF iter   7:  -518.80078163330677   -6.34027e-06   3.49915e-06 DIIS
   @RHF iter   8:  -518.80078332091909   -1.68761e-06   1.46610e-06 DIIS
   @RHF iter   9:  -518.80078369667172   -3.75753e-07   6.44163e-07 DIIS
   @RHF iter  10:  -518.80078377244070   -7.57690e-08   2.77122e-07 DIIS
   @RHF iter  11:  -518.80078378927863   -1.68379e-08   1.06684e-07 DIIS
   @RHF iter  12:  -518.80078379158772   -2.30909e-09   3.81683e-08 DIIS
   @RHF iter  13:  -518.80078379177246   -1.84741e-10   1.04442e-08 DIIS
   @RHF iter  14:  -518.80078379178497   -1.25056e-11   3.87885e-09 DIIS
   @RHF iter  15:  -518.80078379179281   -7.84439e-12   1.94325e-09 DIIS
   @RHF iter  16:  -518.80078379178997    2.84217e-12   1.04907e-09 DIIS
   @RHF iter  17:  -518.80078379179656   -6.59384e-12   3.72897e-10 DIIS
   @RHF iter  18:  -518.80078379179463    1.93268e-12   1.50515e-10 DIIS
   @RHF iter  19:  -518.80078379179690   -2.27374e-12   5.26244e-11 DIIS
  Energy and wave function converged.


  ==> Post-Iterations <==

    Orbital Energies [Eh]
    ---------------------

    Doubly Occupied:                                                      

       1A    -15.601243     2A    -11.262861     3A    -11.262521  
       4A    -11.229408     5A    -11.227168     6A    -11.225724  
       7A    -11.223485     8A    -11.219498     9A    -11.216786  
      10A    -11.216259    11A    -11.215618    12A    -11.214796  
      13A    -11.214075    14A     -1.295739    15A     -1.131644  
      16A     -1.075625    17A     -1.052019    18A     -1.000235  
      19A     -0.987588    20A     -0.931496    21A     -0.922163  
      22A     -0.841083    23A     -0.804880    24A     -0.795654  
      25A     -0.753215    26A     -0.721111    27A     -0.662310  
      28A     -0.643260    29A     -0.626826    30A     -0.606283  
      31A     -0.596471    32A     -0.591916    33A     -0.589173  
      34A     -0.567158    35A     -0.552594    36A     -0.544681  
      37A     -0.538417    38A     -0.529049    39A     -0.524822  
      40A     -0.492757    41A     -0.474796    42A     -0.471251  
      43A     -0.469091    44A     -0.464325    45A     -0.460379  
      46A     -0.374086    47A     -0.294727    48A     -0.273573  

    Virtual:                                                              

      49A      0.126122    50A      0.169421    51A      0.173481  
      52A      0.181054    53A      0.189858    54A      0.210545  
      55A      0.214860    56A      0.220602    57A      0.235666  
      58A      0.239608    59A      0.248636    60A      0.259608  
      61A      0.263364    62A      0.279466    63A      0.292035  
      64A      0.297726    65A      0.303669    66A      0.320357  
      67A      0.334001    68A      0.350020    69A      0.375433  
      70A      0.378015    71A      0.385381    72A      0.411462  
      73A      0.423007    74A      0.429325    75A      0.464598  
      76A      0.473937    77A      0.484734    78A      0.503428  
      79A      0.513853    80A      0.584563    81A      0.596262  
      82A      0.607342    83A      0.617693    84A      0.627728  
      85A      0.636401    86A      0.642466    87A      0.649573  
      88A      0.685372    89A      0.695546    90A      0.698454  
      91A      0.718223    92A      0.720113    93A      0.726966  
      94A      0.737980    95A      0.743690    96A      0.754257  
      97A      0.761680    98A      0.768883    99A      0.780722  
     100A      0.784589   101A      0.791764   102A      0.804425  
     103A      0.819489   104A      0.827361   105A      0.844406  
     106A      0.852143   107A      0.861180   108A      0.873119  
     109A      0.883673   110A      0.886202   111A      0.891393  
     112A      0.897003   113A      0.900067   114A      0.910273  
     115A      0.913703   116A      0.918522   117A      0.927387  
     118A      0.936741   119A      0.945490   120A      0.954116  
     121A      0.962233   122A      0.969555   123A      0.990939  
     124A      1.000232   125A      1.013345   126A      1.020588  
     127A      1.025792   128A      1.046840   129A      1.065702  
     130A      1.081573   131A      1.102401   132A      1.111789  
     133A      1.138386   134A      1.143095   135A      1.150958  
     136A      1.157399   137A      1.168435   138A      1.191978  
     139A      1.218411   140A      1.224082   141A      1.234836  
     142A      1.244780   143A      1.257130   144A      1.279584  
     145A      1.288674   146A      1.306009   147A      1.307885  
     148A      1.332701   149A      1.343085   150A      1.359441  
     151A      1.374743   152A      1.383272   153A      1.446377  
     154A      1.461466   155A      1.486003   156A      1.506476  
     157A      1.524588   158A      1.542413   159A      1.554226  
     160A      1.593672   161A      1.610475   162A      1.632091  
     163A      1.638315   164A      1.648056   165A      1.661279  
     166A      1.675100   167A      1.692665   168A      1.697833  
     169A      1.711687   170A      1.727701   171A      1.740421  
     172A      1.762110   173A      1.775888   174A      1.790719  
     175A      1.811432   176A      1.821283   177A      1.832850  
     178A      1.851067   179A      1.871411   180A      1.881060  
     181A      1.888408   182A      1.893194   183A      1.908995  
     184A      1.910752   185A      1.923194   186A      1.927061  
     187A      1.939238   188A      1.944579   189A      1.953486  
     190A      1.958819   191A      1.966088   192A      1.978696  
     193A      1.985347   194A      1.991388   195A      1.998065  
     196A      2.004503   197A      2.009955   198A      2.012508  
     199A      2.028935   200A      2.038321   201A      2.047766  
     202A      2.078848   203A      2.089280   204A      2.091829  
     205A      2.097349   206A      2.104157   207A      2.111273  
     208A      2.130698   209A      2.145805   210A      2.164919  
     211A      2.165978   212A      2.180495   213A      2.194561  
     214A      2.209775   215A      2.262790   216A      2.268192  
     217A      2.283110   218A      2.290652   219A      2.314908  
     220A      2.319458   221A      2.332006   222A      2.342394  
     223A      2.348197   224A      2.363555   225A      2.376266  
     226A      2.413663   227A      2.425246   228A      2.461603  
     229A      2.472695   230A      2.502614   231A      2.533990  
     232A      2.546750   233A      2.592031   234A      2.603541  
     235A      2.615666   236A      2.619940   237A      2.648157  
     238A      2.657371   239A      2.672305   240A      2.699968  
     241A      2.713659   242A      2.760004   243A      2.764664  
     244A      2.777841   245A      2.783122   246A      2.792425  
     247A      2.804548   248A      2.818126   249A      2.826546  
     250A      2.851853   251A      2.874969   252A      2.899405  
     253A      2.923754   254A      2.945246   255A      2.968684  
     256A      2.976394   257A      2.989038   258A      3.039347  
     259A      3.060023   260A      3.082286   261A      3.099250  
     262A      3.139391   263A      3.216535   264A      3.342598  
     265A      3.388968   266A      3.743790   267A      3.978577  

    Final Occupation by Irrep:
              A 
    DOCC [    48 ]

  @RHF Final Energy:  -518.80078379179690

   => Energetics <=

    Nuclear Repulsion Energy =            743.2910118846434671
    One-Electron Energy =               -2176.2039193491655169
    Two-Electron Energy =                 914.1121236727251471
    Total Energy =                       -518.8007837917969027

Computation Completed


Properties will be evaluated at   0.000000,   0.000000,   0.000000 [a0]

Properties computed using the SCF density matrix

  Nuclear Dipole Moment: [e a0]
     X:   -18.2915      Y:   -10.9734      Z:    -1.6485

  Electronic Dipole Moment: [e a0]
     X:    18.9130      Y:    11.4511      Z:     2.0017

  Dipole Moment: [e a0]
     X:     0.6215      Y:     0.4778      Z:     0.3532     Total:     0.8598

  Dipole Moment: [D]
     X:     1.5797      Y:     1.2144      Z:     0.8978     Total:     2.1854


*** tstop() called on ds3 at Mon Apr 27 06:41:04 2020
Module time:
	user time   =     259.36 seconds =       4.32 minutes
	system time =     107.34 seconds =       1.79 minutes
	total time  =        404 seconds =       6.73 minutes
Total time:
	user time   =     259.36 seconds =       4.32 minutes
	system time =     107.34 seconds =       1.79 minutes
	total time  =        404 seconds =       6.73 minutes
                                     G D M A

                                 by Anthony Stone

                           version 2.2.06, 22 June 2011

               Distributed Multipoles from Gaussian wavefunctions


Starting at 6:41:4 on 27 Apr 2020   


Using SCF density matrix from file ./SSI/SSI-003TRP-167GLN-1-dimer.test.8539.fchk


                         Distributed Multipole Analysis

Standard DMA

Positions and radii in angstrom
Multipole moments in atomic units, ea_0^k for rank k

C          x = -0.378759  y =  0.963708  z =  2.880409 angstrom
           Maximum rank =  0   Radius =  0.650 angstrom
                   Q00  =  -0.218521

C          x =  0.731241  y =  0.602708  z =  0.540409 angstrom
           Maximum rank =  0   Radius =  0.650 angstrom
                   Q00  =  -0.028924

C          x =  0.690241  y =  1.135708  z =  1.867409 angstrom
           Maximum rank =  0   Radius =  0.650 angstrom
                   Q00  =  -0.122618

C          x =  1.954241  y =  1.023708  z = -0.046591 angstrom
           Maximum rank =  0   Radius =  0.650 angstrom
                   Q00  =   0.193276

C          x =  1.846241  y =  1.838708  z =  2.036409 angstrom
           Maximum rank =  0   Radius =  0.650 angstrom
                   Q00  =   0.070689

C          x = -0.148759  y = -0.199292  z = -0.167591 angstrom
           Maximum rank =  0   Radius =  0.650 angstrom
                   Q00  =  -0.107363

C          x =  0.205241  y = -0.552292  z = -1.461591 angstrom
           Maximum rank =  0   Radius =  0.650 angstrom
                   Q00  =  -0.078911

C          x =  1.404241  y = -0.119292  z = -2.033591 angstrom
           Maximum rank =  0   Radius =  0.650 angstrom
                   Q00  =   0.013382

C          x =  2.299241  y =  0.672708  z = -1.340591 angstrom
           Maximum rank =  0   Radius =  0.650 angstrom
                   Q00  =  -0.118325

N          x =  2.605241  y =  1.775708  z =  0.893409 angstrom
           Maximum rank =  0   Radius =  0.650 angstrom
                   Q00  =  -0.488067

H          x = -1.066759  y = -0.511292  z =  0.287409 angstrom
           Maximum rank =  0   Radius =  0.325 angstrom
                   Q00  =   0.076676

H          x = -0.456759  y = -1.175292  z = -2.050591 angstrom
           Maximum rank =  0   Radius =  0.325 angstrom
                   Q00  =   0.056357

H          x =  1.638241  y = -0.413292  z = -3.049591 angstrom
           Maximum rank =  0   Radius =  0.325 angstrom
                   Q00  =   0.061189

H          x =  0.093241  y =  0.978708  z =  3.856409 angstrom
           Maximum rank =  0   Radius =  0.325 angstrom
                   Q00  =   0.102828

H          x = -0.817759  y = -0.024292  z =  2.752409 angstrom
           Maximum rank =  0   Radius =  0.325 angstrom
                   Q00  =   0.101967

H          x =  2.133241  y =  2.356708  z =  2.946409 angstrom
           Maximum rank =  0   Radius =  0.325 angstrom
                   Q00  =   0.098629

H          x =  3.518241  y =  2.204708  z =  0.788409 angstrom
           Maximum rank =  0   Radius =  0.325 angstrom
                   Q00  =   0.216846

H          x =  3.229241  y =  1.000708  z = -1.784591 angstrom
           Maximum rank =  0   Radius =  0.325 angstrom
                   Q00  =   0.073552

H          x = -1.185799  y =  1.711158  z =  2.878969 angstrom
           Maximum rank =  0   Radius =  0.325 angstrom
                   Q00  =   0.099617

C          x = -3.383759  y = -1.590292  z = -1.029591 angstrom
           Maximum rank =  0   Radius =  0.650 angstrom
                   Q00  =  -0.089749

C          x = -3.643759  y = -2.390292  z = -2.299591 angstrom
           Maximum rank =  0   Radius =  0.650 angstrom
                   Q00  =  -0.217012

C          x = -2.977759  y = -2.475292  z =  0.159409 angstrom
           Maximum rank =  0   Radius =  0.650 angstrom
                   Q00  =  -0.268696

H          x = -2.607759  y = -0.857292  z = -1.226591 angstrom
           Maximum rank =  0   Radius =  0.325 angstrom
                   Q00  =   0.051015

H          x = -4.293759  y = -1.051292  z = -0.769591 angstrom
           Maximum rank =  0   Radius =  0.325 angstrom
                   Q00  =   0.046290

H          x = -2.764759  y = -3.008292  z = -2.496591 angstrom
           Maximum rank =  0   Radius =  0.325 angstrom
                   Q00  =   0.071959

H          x = -3.665759  y = -3.309292  z =  0.277409 angstrom
           Maximum rank =  0   Radius =  0.325 angstrom
                   Q00  =   0.079159

H          x = -1.986759  y = -2.888292  z = -0.031591 angstrom
           Maximum rank =  0   Radius =  0.325 angstrom
                   Q00  =   0.078655

H          x = -3.802779  y = -1.702202  z = -3.142941 angstrom
           Maximum rank =  0   Radius =  0.325 angstrom
                   Q00  =   0.086651

H          x = -4.498739  y = -3.058242  z = -2.118341 angstrom
           Maximum rank =  0   Radius =  0.325 angstrom
                   Q00  =   0.076919

H          x = -2.968289  y = -1.952712  z =  1.127309 angstrom
           Maximum rank =  0   Radius =  0.325 angstrom
                   Q00  =   0.082529

Total multipoles referred to origin at
           x =   0.000000,  y =    0.000000,  z =    0.000000 angstrom
                   Q00  =  -0.000000

Finished at 6:41:4 on 27 Apr 2020   

  DMA results are available in the Python driver through the
	  variable('DMA DISTRIBUTED MULTIPOLES')
  and
	  variable('DMA TOTAL MULTIPOLES')
  commands.


    Psi4 stopped on: Monday, 27 April 2020 06:41AM
    Psi4 wall time for execution: 0:06:44.45

*** Psi4 exiting successfully. Buy a developer a beer!
