
    -----------------------------------------------------------------------
          Psi4: An Open-Source Ab Initio Electronic Structure Package
                               Psi4 1.3.2 release

                         Git: Rev {HEAD} ecbda83 


    R. M. Parrish, L. A. Burns, D. G. A. Smith, A. C. Simmonett,
    A. E. DePrince III, E. G. Hohenstein, U. Bozkaya, A. Yu. Sokolov,
    R. Di Remigio, R. M. Richard, J. F. Gonthier, A. M. James,
    H. R. McAlexander, A. Kumar, M. Saitow, X. Wang, B. P. Pritchard,
    P. Verma, H. F. Schaefer III, K. Patkowski, R. A. King, E. F. Valeev,
    F. A. Evangelista, J. M. Turney, T. D. Crawford, and C. D. Sherrill,
    J. Chem. Theory Comput. 13(7) pp 3185--3197 (2017).
    (doi: 10.1021/acs.jctc.7b00174)


                         Additional Contributions by
    P. Kraus, H. Kruse, M. H. Lechner, M. C. Schieber, R. A. Shaw,
    A. Alenaizan, R. Galvelis, Z. L. Glick, S. Lehtola, and J. P. Misiewicz

    -----------------------------------------------------------------------


    Psi4 started on: Sunday, 26 April 2020 05:20PM

    Process ID: 18202
    Host:       ds3
    PSIDATADIR: /theoryfs2/ds/metcalf/miniconda2/envs/tf2gpu/share/psi4
    Memory:     500.0 MiB
    Threads:    1
    
  ==> Input File <==

--------------------------------------------------------------------------
import numpy as np
set {scf_type pk
basis cc-pvdz
d_convergence 10
gdma_switch   0
gdma_limit    0
gdma_origin   [ 0.0,  0.0,  0.0 ]
}
molecule test {
    units Angstrom
    0 1
    --
    0 1
    C               -2.546791877127188    -0.842340828143769    -1.235996369272998
    C               -0.105791877127188    -0.738340828143769    -0.594996369272997
    C               -1.377791877127188    -1.276340828143769    -0.380996369272997
    C                0.956208122872812    -1.057340828143769     0.252003630727003
    C               -1.566791877127188    -2.149340828143769     0.693003630727003
    C                0.750208122872812    -1.924340828143769     1.323003630727002
    C               -0.510791877127188    -2.475340828143769     1.545003630727003
    O                1.777208122872812    -2.212340828143769     2.170003630727003
    H                0.056208122872812    -0.054340828143769    -1.417996369272998
    H                1.930208122872812    -0.619340828143769     0.093003630727003
    H               -3.397791877127188    -1.504340828143769    -1.064996369272998
    H               -2.262791877127188    -0.922340828143769    -2.286996369272997
    H               -2.549791877127188    -2.561340828143769     0.886003630727003
    H               -0.673791877127188    -3.139340828143769     2.382003630727003
    H                1.436208122872812    -2.637340828143770     2.975003630727003
    H               -2.838891877127188     0.194799171856231    -1.014576369272997
    C               -0.398791877127188     3.480659171856231    -1.880996369272998
    C                0.625208122872812     2.893659171856231    -0.914996369272997
    O                1.654208122872812     2.376659171856231    -1.347996369272997
    N                0.358208122872812     2.930659171856231     0.382003630727003
    H               -0.923791877127188     2.646659171856231    -2.343996369272997
    H                0.124208122872812     4.004659171856231    -2.678996369272997
    H                1.030208122872812     2.500659171856231     1.005003630727003
    H               -0.501791877127188     3.315659171856231     0.761003630727003
    H               -1.152011877127188     4.136319171856231    -1.419736369272998

}
e, wfn = energy('scf', return_wfn=True)
gdma(wfn)
dmavals = variable('DMA DISTRIBUTED MULTIPOLES')
charges = np.array(dmavals)
print(charges)
np.save('SSI-043TYR-048GLN-1-dimer.npy', np.array(charges))--------------------------------------------------------------------------

*** tstart() called on ds3
*** at Sun Apr 26 17:20:40 2020

   => Loading Basis Set <=

    Name: CC-PVDZ
    Role: ORBITAL
    Keyword: BASIS
    atoms 1-7, 17-18  entry C          line   138 file /theoryfs2/ds/metcalf/miniconda2/envs/tf2gpu/share/psi4/basis/cc-pvdz.gbs 
    atoms 8, 19       entry O          line   198 file /theoryfs2/ds/metcalf/miniconda2/envs/tf2gpu/share/psi4/basis/cc-pvdz.gbs 
    atoms 9-16, 21-25 entry H          line    22 file /theoryfs2/ds/metcalf/miniconda2/envs/tf2gpu/share/psi4/basis/cc-pvdz.gbs 
    atoms 20          entry N          line   168 file /theoryfs2/ds/metcalf/miniconda2/envs/tf2gpu/share/psi4/basis/cc-pvdz.gbs 


         ---------------------------------------------------------
                                   SCF
               by Justin Turney, Rob Parrish, Andy Simmonett
                          and Daniel G. A. Smith
                              RHF Reference
                        1 Threads,    500 MiB Core
         ---------------------------------------------------------

  ==> Geometry <==

    Molecular point group: c1
    Full point group: C1

    Geometry (in Angstrom), charge = 0, multiplicity = 1:

       Center              X                  Y                   Z               Mass       
    ------------   -----------------  -----------------  -----------------  -----------------
         C           -2.546791877127    -0.842340828144    -1.235996369273    12.000000000000
         C           -0.105791877127    -0.738340828144    -0.594996369273    12.000000000000
         C           -1.377791877127    -1.276340828144    -0.380996369273    12.000000000000
         C            0.956208122873    -1.057340828144     0.252003630727    12.000000000000
         C           -1.566791877127    -2.149340828144     0.693003630727    12.000000000000
         C            0.750208122873    -1.924340828144     1.323003630727    12.000000000000
         C           -0.510791877127    -2.475340828144     1.545003630727    12.000000000000
         O            1.777208122873    -2.212340828144     2.170003630727    15.994914619570
         H            0.056208122873    -0.054340828144    -1.417996369273     1.007825032230
         H            1.930208122873    -0.619340828144     0.093003630727     1.007825032230
         H           -3.397791877127    -1.504340828144    -1.064996369273     1.007825032230
         H           -2.262791877127    -0.922340828144    -2.286996369273     1.007825032230
         H           -2.549791877127    -2.561340828144     0.886003630727     1.007825032230
         H           -0.673791877127    -3.139340828144     2.382003630727     1.007825032230
         H            1.436208122873    -2.637340828144     2.975003630727     1.007825032230
         H           -2.838891877127     0.194799171856    -1.014576369273     1.007825032230
         C           -0.398791877127     3.480659171856    -1.880996369273    12.000000000000
         C            0.625208122873     2.893659171856    -0.914996369273    12.000000000000
         O            1.654208122873     2.376659171856    -1.347996369273    15.994914619570
         N            0.358208122873     2.930659171856     0.382003630727    14.003074004430
         H           -0.923791877127     2.646659171856    -2.343996369273     1.007825032230
         H            0.124208122873     4.004659171856    -2.678996369273     1.007825032230
         H            1.030208122873     2.500659171856     1.005003630727     1.007825032230
         H           -0.501791877127     3.315659171856     0.761003630727     1.007825032230
         H           -1.152011877127     4.136319171856    -1.419736369273     1.007825032230

  Running in c1 symmetry.

  Rotational constants: A =      0.04015  B =      0.01583  C =      0.01250 [cm^-1]
  Rotational constants: A =   1203.80090  B =    474.54760  C =    374.60450 [MHz]
  Nuclear repulsion =  656.746153446904486

  Charge       = 0
  Multiplicity = 1
  Electrons    = 90
  Nalpha       = 45
  Nbeta        = 45

  ==> Algorithm <==

  SCF Algorithm Type is PK.
  DIIS enabled.
  MOM disabled.
  Fractional occupation disabled.
  Guess Type is SAD.
  Energy threshold   = 1.00e-06
  Density threshold  = 1.00e-10
  Integral threshold = 0.00e+00

  ==> Primary Basis <==

  Basis Set: CC-PVDZ
    Blend: CC-PVDZ
    Number of shells: 111
    Number of basis function: 233
    Number of Cartesian functions: 245
    Spherical Harmonics?: true
    Max angular momentum: 2

  ==> Pre-Iterations <==

   -------------------------------------------------------
    Irrep   Nso     Nmo     Nalpha   Nbeta   Ndocc  Nsocc
   -------------------------------------------------------
     A        233     233       0       0       0       0
   -------------------------------------------------------
    Total     233     233      45      45      45       0
   -------------------------------------------------------

  ==> Integral Setup <==

  Using integral reordering PK algorithm.
  Sizing the integral batches needed.
  Building batch lookup table.
   Calculation information:
      Number of atoms:                  25
      Number of AO shells:             111
      Number of primitives:            329
      Number of atomic orbitals:       245
      Number of basis functions:       233

      Integral cutoff                 1.00e-12
      Number of threads:                 1

	Batch   1 pq = [       0,    9405] index = [             0,44231715] size =     44231715
	Batch   2 pq = [    9405,   13301] index = [      44231715,88464951] size =     44233236
	Batch   3 pq = [   13301,   16290] index = [      88464951,132690195] size =     44225244
	Batch   4 pq = [   16290,   18810] index = [     132690195,176917455] size =     44227260
	Batch   5 pq = [   18810,   21030] index = [     176917455,221140965] size =     44223510
	Batch   6 pq = [   21030,   23037] index = [     221140965,265363203] size =     44222238
	Batch   7 pq = [   23037,   24883] index = [     265363203,309594286] size =     44231083
	Batch   8 pq = [   24883,   26601] index = [     309594286,353819901] size =     44225615
	Batch   9 pq = [   26601,   27261] index = [     353819901,371594691] size =     17774790
  Task number: 34
  Buffer size: 11059200
  Buffer per thread: 2
  We computed 17602199 shell quartets total.
  Whereas there are 19322436 unique shell quartets.

  ==> DiskJK: Disk-Based J/K Matrices <==

    J tasked:                  Yes
    K tasked:                  Yes
    wK tasked:                  No
    Memory [MiB]:              375
    Schwarz Cutoff:          1E-12

    OpenMP threads:              1

  Minimum eigenvalue in the overlap matrix is 3.2507096089E-04.
  Using Symmetric Orthogonalization.

  SCF Guess: Superposition of Atomic Densities via on-the-fly atomic UHF.

  ==> Iterations <==

                        Total Energy        Delta E     RMS |[F,P]|

   @RHF iter SAD:  -551.19480441234555   -5.51195e+02   0.00000e+00 
   @RHF iter   1:  -552.29519668777323   -1.10039e+00   3.22367e-03 DIIS
   @RHF iter   2:  -552.55282237937706   -2.57626e-01   1.68868e-03 DIIS
   @RHF iter   3:  -552.61340667957643   -6.05843e-02   3.87281e-04 DIIS
   @RHF iter   4:  -552.61810407265034   -4.69739e-03   1.53142e-04 DIIS
   @RHF iter   5:  -552.61886636266104   -7.62290e-04   2.41253e-05 DIIS
   @RHF iter   6:  -552.61890311599052   -3.67533e-05   1.13505e-05 DIIS
   @RHF iter   7:  -552.61890956894649   -6.45296e-06   4.10038e-06 DIIS
   @RHF iter   8:  -552.61891088022992   -1.31128e-06   1.69743e-06 DIIS
   @RHF iter   9:  -552.61891107133511   -1.91105e-07   6.72637e-07 DIIS
   @RHF iter  10:  -552.61891110410625   -3.27711e-08   2.26614e-07 DIIS
   @RHF iter  11:  -552.61891110853401   -4.42776e-09   7.19357e-08 DIIS
   @RHF iter  12:  -552.61891110905128   -5.17275e-10   3.55892e-08 DIIS
   @RHF iter  13:  -552.61891110918214   -1.30854e-10   1.53253e-08 DIIS
   @RHF iter  14:  -552.61891110921579   -3.36513e-11   6.79261e-09 DIIS
   @RHF iter  15:  -552.61891110922238   -6.59384e-12   2.42031e-09 DIIS
   @RHF iter  16:  -552.61891110922181    5.68434e-13   8.16988e-10 DIIS
   @RHF iter  17:  -552.61891110922579   -3.97904e-12   3.22558e-10 DIIS
   @RHF iter  18:  -552.61891110922943   -3.63798e-12   9.95214e-11 DIIS
  Energy and wave function converged.


  ==> Post-Iterations <==

    Orbital Energies [Eh]
    ---------------------

    Doubly Occupied:                                                      

       1A    -20.581190     2A    -20.503399     3A    -15.589766  
       4A    -11.350344     5A    -11.295391     6A    -11.243979  
       7A    -11.237100     8A    -11.233006     9A    -11.230931  
      10A    -11.230629    11A    -11.229510    12A    -11.225047  
      13A     -1.396292    14A     -1.367745    15A     -1.214067  
      16A     -1.145364    17A     -1.033398    18A     -1.012647  
      19A     -0.998584    20A     -0.923171    21A     -0.839957  
      22A     -0.801107    23A     -0.796676    24A     -0.725268  
      25A     -0.724694    26A     -0.664649    27A     -0.655167  
      28A     -0.637231    29A     -0.611188    30A     -0.602413  
      31A     -0.584629    32A     -0.581356    33A     -0.570525  
      34A     -0.568899    35A     -0.564071    36A     -0.559106  
      37A     -0.524984    38A     -0.520991    39A     -0.493952  
      40A     -0.480697    41A     -0.463043    42A     -0.411060  
      43A     -0.402986    44A     -0.333798    45A     -0.298813  

    Virtual:                                                              

      46A      0.131540    47A      0.150105    48A      0.161704  
      49A      0.181089    50A      0.184915    51A      0.202418  
      52A      0.211113    53A      0.223032    54A      0.228118  
      55A      0.251535    56A      0.256721    57A      0.267309  
      58A      0.274308    59A      0.281395    60A      0.294680  
      61A      0.337545    62A      0.370035    63A      0.374909  
      64A      0.384042    65A      0.432059    66A      0.453129  
      67A      0.468079    68A      0.492099    69A      0.502428  
      70A      0.520115    71A      0.558456    72A      0.613836  
      73A      0.621605    74A      0.640509    75A      0.649943  
      76A      0.664699    77A      0.669105    78A      0.676416  
      79A      0.691697    80A      0.695456    81A      0.703487  
      82A      0.713669    83A      0.730220    84A      0.736866  
      85A      0.741098    86A      0.745376    87A      0.764695  
      88A      0.776880    89A      0.783425    90A      0.796121  
      91A      0.811648    92A      0.835668    93A      0.844153  
      94A      0.851882    95A      0.867296    96A      0.881849  
      97A      0.885246    98A      0.892718    99A      0.893275  
     100A      0.900312   101A      0.907628   102A      0.915821  
     103A      0.926803   104A      0.933489   105A      0.952541  
     106A      0.967256   107A      0.979317   108A      1.011524  
     109A      1.015693   110A      1.026497   111A      1.040460  
     112A      1.053764   113A      1.063213   114A      1.108755  
     115A      1.125959   116A      1.133186   117A      1.148460  
     118A      1.164650   119A      1.171824   120A      1.213039  
     121A      1.231796   122A      1.250171   123A      1.267927  
     124A      1.282210   125A      1.301487   126A      1.309870  
     127A      1.316418   128A      1.330377   129A      1.342240  
     130A      1.356336   131A      1.368958   132A      1.382862  
     133A      1.400726   134A      1.420427   135A      1.438451  
     136A      1.451763   137A      1.466508   138A      1.483299  
     139A      1.510645   140A      1.543083   141A      1.569924  
     142A      1.619551   143A      1.623151   144A      1.646313  
     145A      1.664027   146A      1.673924   147A      1.696805  
     148A      1.732820   149A      1.742034   150A      1.754795  
     151A      1.781413   152A      1.803320   153A      1.813726  
     154A      1.827233   155A      1.842564   156A      1.868321  
     157A      1.883772   158A      1.890280   159A      1.892316  
     160A      1.901103   161A      1.908902   162A      1.918502  
     163A      1.922628   164A      1.928041   165A      1.944459  
     166A      1.954219   167A      1.966277   168A      1.972644  
     169A      1.986310   170A      1.993820   171A      2.027303  
     172A      2.038467   173A      2.051378   174A      2.067273  
     175A      2.070080   176A      2.080250   177A      2.085089  
     178A      2.131129   179A      2.136692   180A      2.142842  
     181A      2.177646   182A      2.202893   183A      2.215926  
     184A      2.226655   185A      2.263498   186A      2.274168  
     187A      2.302757   188A      2.323939   189A      2.342532  
     190A      2.367807   191A      2.403668   192A      2.424595  
     193A      2.442857   194A      2.445829   195A      2.472112  
     196A      2.485865   197A      2.501156   198A      2.522465  
     199A      2.536703   200A      2.540759   201A      2.575290  
     202A      2.614285   203A      2.635822   204A      2.638246  
     205A      2.742928   206A      2.745698   207A      2.749500  
     208A      2.771710   209A      2.790568   210A      2.812131  
     211A      2.820282   212A      2.833539   213A      2.862612  
     214A      2.894883   215A      2.963189   216A      2.989260  
     217A      3.002048   218A      3.087302   219A      3.090035  
     220A      3.111386   221A      3.131544   222A      3.257230  
     223A      3.265590   224A      3.279505   225A      3.345428  
     226A      3.502727   227A      3.526145   228A      3.578169  
     229A      3.680187   230A      3.867569   231A      3.908351  
     232A      3.955789   233A      4.172385  

    Final Occupation by Irrep:
              A 
    DOCC [    45 ]

  @RHF Final Energy:  -552.61891110922943

   => Energetics <=

    Nuclear Repulsion Energy =            656.7461534469044864
    One-Electron Energy =               -2055.8124893567937761
    Two-Electron Energy =                 846.4474248006599737
    Total Energy =                       -552.6189111092294297

Computation Completed


Properties will be evaluated at   0.000000,   0.000000,   0.000000 [a0]

Properties computed using the SCF density matrix

  Nuclear Dipole Moment: [e a0]
     X:    -9.1001      Y:     5.0175      Z:    -3.8645

  Electronic Dipole Moment: [e a0]
     X:     7.3658      Y:    -4.4869      Z:     4.9537

  Dipole Moment: [e a0]
     X:    -1.7343      Y:     0.5305      Z:     1.0892     Total:     2.1156

  Dipole Moment: [D]
     X:    -4.4082      Y:     1.3485      Z:     2.7685     Total:     5.3773


*** tstop() called on ds3 at Sun Apr 26 17:24:33 2020
Module time:
	user time   =     141.76 seconds =       2.36 minutes
	system time =      64.07 seconds =       1.07 minutes
	total time  =        233 seconds =       3.88 minutes
Total time:
	user time   =     141.76 seconds =       2.36 minutes
	system time =      64.07 seconds =       1.07 minutes
	total time  =        233 seconds =       3.88 minutes
                                     G D M A

                                 by Anthony Stone

                           version 2.2.06, 22 June 2011

               Distributed Multipoles from Gaussian wavefunctions


Starting at 17:24:33 on 26 Apr 2020 


Using SCF density matrix from file ./SSI/SSI-043TYR-048GLN-1-dimer.test.18202.fchk


                         Distributed Multipole Analysis

Standard DMA

Positions and radii in angstrom
Multipole moments in atomic units, ea_0^k for rank k

C          x = -2.546792  y = -0.842341  z = -1.235996 angstrom
           Maximum rank =  0   Radius =  0.650 angstrom
                   Q00  =  -0.187287

C          x = -0.105792  y = -0.738341  z = -0.594996 angstrom
           Maximum rank =  0   Radius =  0.650 angstrom
                   Q00  =  -0.008956

C          x = -1.377792  y = -1.276341  z = -0.380996 angstrom
           Maximum rank =  0   Radius =  0.650 angstrom
                   Q00  =  -0.154282

C          x =  0.956208  y = -1.057341  z =  0.252004 angstrom
           Maximum rank =  0   Radius =  0.650 angstrom
                   Q00  =  -0.105411

C          x = -1.566792  y = -2.149341  z =  0.693004 angstrom
           Maximum rank =  0   Radius =  0.650 angstrom
                   Q00  =   0.032258

C          x =  0.750208  y = -1.924341  z =  1.323004 angstrom
           Maximum rank =  0   Radius =  0.650 angstrom
                   Q00  =   0.289266

C          x = -0.510792  y = -2.475341  z =  1.545004 angstrom
           Maximum rank =  0   Radius =  0.650 angstrom
                   Q00  =  -0.179500

O          x =  1.777208  y = -2.212341  z =  2.170004 angstrom
           Maximum rank =  0   Radius =  0.650 angstrom
                   Q00  =  -0.666929

H          x =  0.056208  y = -0.054341  z = -1.417996 angstrom
           Maximum rank =  0   Radius =  0.325 angstrom
                   Q00  =   0.065767

H          x =  1.930208  y = -0.619341  z =  0.093004 angstrom
           Maximum rank =  0   Radius =  0.325 angstrom
                   Q00  =   0.087329

H          x = -3.397792  y = -1.504341  z = -1.064996 angstrom
           Maximum rank =  0   Radius =  0.325 angstrom
                   Q00  =   0.097419

H          x = -2.262792  y = -0.922341  z = -2.286996 angstrom
           Maximum rank =  0   Radius =  0.325 angstrom
                   Q00  =   0.097969

H          x = -2.549792  y = -2.561341  z =  0.886004 angstrom
           Maximum rank =  0   Radius =  0.325 angstrom
                   Q00  =   0.066552

H          x = -0.673792  y = -3.139341  z =  2.382004 angstrom
           Maximum rank =  0   Radius =  0.325 angstrom
                   Q00  =   0.069256

H          x =  1.436208  y = -2.637341  z =  2.975004 angstrom
           Maximum rank =  0   Radius =  0.325 angstrom
                   Q00  =   0.405466

H          x = -2.838892  y =  0.194799  z = -1.014576 angstrom
           Maximum rank =  0   Radius =  0.325 angstrom
                   Q00  =   0.088555

C          x = -0.398792  y =  3.480659  z = -1.880996 angstrom
           Maximum rank =  0   Radius =  0.650 angstrom
                   Q00  =  -0.269428

C          x =  0.625208  y =  2.893659  z = -0.914996 angstrom
           Maximum rank =  0   Radius =  0.650 angstrom
                   Q00  =   0.804364

O          x =  1.654208  y =  2.376659  z = -1.347996 angstrom
           Maximum rank =  0   Radius =  0.650 angstrom
                   Q00  =  -0.791440

N          x =  0.358208  y =  2.930659  z =  0.382004 angstrom
           Maximum rank =  0   Radius =  0.650 angstrom
                   Q00  =  -0.521143

H          x = -0.923792  y =  2.646659  z = -2.343996 angstrom
           Maximum rank =  0   Radius =  0.325 angstrom
                   Q00  =   0.128880

H          x =  0.124208  y =  4.004659  z = -2.678996 angstrom
           Maximum rank =  0   Radius =  0.325 angstrom
                   Q00  =   0.133959

H          x =  1.030208  y =  2.500659  z =  1.005004 angstrom
           Maximum rank =  0   Radius =  0.325 angstrom
                   Q00  =   0.223751

H          x = -0.501792  y =  3.315659  z =  0.761004 angstrom
           Maximum rank =  0   Radius =  0.325 angstrom
                   Q00  =   0.211505

H          x = -1.152012  y =  4.136319  z = -1.419736 angstrom
           Maximum rank =  0   Radius =  0.325 angstrom
                   Q00  =   0.082082

Total multipoles referred to origin at
           x =   0.000000,  y =    0.000000,  z =    0.000000 angstrom
                   Q00  =  -0.000000

Finished at 17:24:33 on 26 Apr 2020 

  DMA results are available in the Python driver through the
	  variable('DMA DISTRIBUTED MULTIPOLES')
  and
	  variable('DMA TOTAL MULTIPOLES')
  commands.


    Psi4 stopped on: Sunday, 26 April 2020 05:24PM
    Psi4 wall time for execution: 0:03:53.41

*** Psi4 exiting successfully. Buy a developer a beer!
