
    -----------------------------------------------------------------------
          Psi4: An Open-Source Ab Initio Electronic Structure Package
                               Psi4 1.3.2 release

                         Git: Rev {HEAD} ecbda83 


    R. M. Parrish, L. A. Burns, D. G. A. Smith, A. C. Simmonett,
    A. E. DePrince III, E. G. Hohenstein, U. Bozkaya, A. Yu. Sokolov,
    R. Di Remigio, R. M. Richard, J. F. Gonthier, A. M. James,
    H. R. McAlexander, A. Kumar, M. Saitow, X. Wang, B. P. Pritchard,
    P. Verma, H. F. Schaefer III, K. Patkowski, R. A. King, E. F. Valeev,
    F. A. Evangelista, J. M. Turney, T. D. Crawford, and C. D. Sherrill,
    J. Chem. Theory Comput. 13(7) pp 3185--3197 (2017).
    (doi: 10.1021/acs.jctc.7b00174)


                         Additional Contributions by
    P. Kraus, H. Kruse, M. H. Lechner, M. C. Schieber, R. A. Shaw,
    A. Alenaizan, R. Galvelis, Z. L. Glick, S. Lehtola, and J. P. Misiewicz

    -----------------------------------------------------------------------


    Psi4 started on: Tuesday, 28 April 2020 03:59AM

    Process ID: 27133
    Host:       ds3
    PSIDATADIR: /theoryfs2/ds/metcalf/miniconda2/envs/tf2gpu/share/psi4
    Memory:     500.0 MiB
    Threads:    1
    
  ==> Input File <==

--------------------------------------------------------------------------
import numpy as np
set {scf_type pk
basis cc-pvdz
d_convergence 10
gdma_switch   0
gdma_limit    0
gdma_origin   [ 0.0,  0.0,  0.0 ]
}
molecule test {
    units Angstrom
    0 1
    --
    0 1
    C                1.025502140920888     0.656172809113679    -1.342073719322979
    C                1.816502140920888     1.589172809113679    -0.432073719322979
    H                0.626502140920889    -0.174827190886322    -0.772073719322979
    H                0.193502140920888     1.203172809113678    -1.785073719322979
    H                1.670502140920888     0.282172809113678    -2.139073719322979
    H                1.132502140920889     1.953172809113678     0.328926280677021
    H                2.661702140920889     1.076172809113678     0.050076280677021
    H                2.171842140920889     2.456582809113679    -1.007695719322979
    C               -1.273497859079112    -1.713827190886322     0.424926280677021
    C               -1.570497859079112    -0.535827190886321     1.344926280677021
    H               -1.326497859079112    -1.406827190886321    -0.619073719322979
    H               -0.273497859079112    -2.089827190886322     0.638926280677021
    H               -1.978497859079112    -2.519827190886321     0.605926280677021
    H               -0.679497859079111     0.091172809113678     1.392926280677021
    H               -1.764497859079112    -0.912827190886321     2.342926280677021
    H               -2.410351859079111     0.092992809113678     1.014421280677021

}
e, wfn = energy('scf', return_wfn=True)
gdma(wfn)
dmavals = variable('DMA DISTRIBUTED MULTIPOLES')
charges = np.array(dmavals)
print(charges)
np.save('SSI-009LEU-058ILE-1-dimer.npy', np.array(charges))--------------------------------------------------------------------------

*** tstart() called on ds3
*** at Tue Apr 28 03:59:56 2020

   => Loading Basis Set <=

    Name: CC-PVDZ
    Role: ORBITAL
    Keyword: BASIS
    atoms 1-2, 9-10  entry C          line   138 file /theoryfs2/ds/metcalf/miniconda2/envs/tf2gpu/share/psi4/basis/cc-pvdz.gbs 
    atoms 3-8, 11-16 entry H          line    22 file /theoryfs2/ds/metcalf/miniconda2/envs/tf2gpu/share/psi4/basis/cc-pvdz.gbs 


         ---------------------------------------------------------
                                   SCF
               by Justin Turney, Rob Parrish, Andy Simmonett
                          and Daniel G. A. Smith
                              RHF Reference
                        1 Threads,    500 MiB Core
         ---------------------------------------------------------

  ==> Geometry <==

    Molecular point group: c1
    Full point group: C1

    Geometry (in Angstrom), charge = 0, multiplicity = 1:

       Center              X                  Y                   Z               Mass       
    ------------   -----------------  -----------------  -----------------  -----------------
         C            1.025502140921     0.656172809114    -1.342073719323    12.000000000000
         C            1.816502140921     1.589172809114    -0.432073719323    12.000000000000
         H            0.626502140921    -0.174827190886    -0.772073719323     1.007825032230
         H            0.193502140921     1.203172809114    -1.785073719323     1.007825032230
         H            1.670502140921     0.282172809114    -2.139073719323     1.007825032230
         H            1.132502140921     1.953172809114     0.328926280677     1.007825032230
         H            2.661702140921     1.076172809114     0.050076280677     1.007825032230
         H            2.171842140921     2.456582809114    -1.007695719323     1.007825032230
         C           -1.273497859079    -1.713827190886     0.424926280677    12.000000000000
         C           -1.570497859079    -0.535827190886     1.344926280677    12.000000000000
         H           -1.326497859079    -1.406827190886    -0.619073719323     1.007825032230
         H           -0.273497859079    -2.089827190886     0.638926280677     1.007825032230
         H           -1.978497859079    -2.519827190886     0.605926280677     1.007825032230
         H           -0.679497859079     0.091172809114     1.392926280677     1.007825032230
         H           -1.764497859079    -0.912827190886     2.342926280677     1.007825032230
         H           -2.410351859079     0.092992809114     1.014421280677     1.007825032230

  Running in c1 symmetry.

  Rotational constants: A =      0.36718  B =      0.06382  C =      0.05798 [cm^-1]
  Rotational constants: A =  11007.81962  B =   1913.18955  C =   1738.07263 [MHz]
  Nuclear repulsion =  126.131382032243977

  Charge       = 0
  Multiplicity = 1
  Electrons    = 36
  Nalpha       = 18
  Nbeta        = 18

  ==> Algorithm <==

  SCF Algorithm Type is PK.
  DIIS enabled.
  MOM disabled.
  Fractional occupation disabled.
  Guess Type is SAD.
  Energy threshold   = 1.00e-06
  Density threshold  = 1.00e-10
  Integral threshold = 0.00e+00

  ==> Primary Basis <==

  Basis Set: CC-PVDZ
    Blend: CC-PVDZ
    Number of shells: 60
    Number of basis function: 116
    Number of Cartesian functions: 120
    Spherical Harmonics?: true
    Max angular momentum: 2

  ==> Pre-Iterations <==

   -------------------------------------------------------
    Irrep   Nso     Nmo     Nalpha   Nbeta   Ndocc  Nsocc
   -------------------------------------------------------
     A        116     116       0       0       0       0
   -------------------------------------------------------
    Total     116     116      18      18      18       0
   -------------------------------------------------------

  ==> Integral Setup <==

  Using integral reordering PK algorithm.
  Sizing the integral batches needed.
  Building batch lookup table.
   Calculation information:
      Number of atoms:                  16
      Number of AO shells:              60
      Number of primitives:            148
      Number of atomic orbitals:       120
      Number of basis functions:       116

      Integral cutoff                 1.00e-12
      Number of threads:                 1

	Batch   1 pq = [       0,    6786] index = [             0,23028291] size =     23028291
  Task number: 3
  Buffer size: 11059200
  Buffer per thread: 2
  We computed 1576844 shell quartets total.
  Whereas there are 1675365 unique shell quartets.

  ==> DiskJK: Disk-Based J/K Matrices <==

    J tasked:                  Yes
    K tasked:                  Yes
    wK tasked:                  No
    Memory [MiB]:              375
    Schwarz Cutoff:          1E-12

    OpenMP threads:              1

  Minimum eigenvalue in the overlap matrix is 7.2863050558E-03.
  Using Symmetric Orthogonalization.

  SCF Guess: Superposition of Atomic Densities via on-the-fly atomic UHF.

  ==> Iterations <==

                        Total Energy        Delta E     RMS |[F,P]|

   @RHF iter SAD:  -157.39820202580108   -1.57398e+02   0.00000e+00 
   @RHF iter   1:  -158.30470859617870   -9.06507e-01   4.22713e-03 DIIS
   @RHF iter   2:  -158.43886996780660   -1.34161e-01   1.79752e-03 DIIS
   @RHF iter   3:  -158.46231879983767   -2.34488e-02   3.51547e-04 DIIS
   @RHF iter   4:  -158.46416633452804   -1.84753e-03   3.92690e-05 DIIS
   @RHF iter   5:  -158.46419063752700   -2.43030e-05   6.69847e-06 DIIS
   @RHF iter   6:  -158.46419130085241   -6.63325e-07   1.09683e-06 DIIS
   @RHF iter   7:  -158.46419131317114   -1.23187e-08   3.18107e-07 DIIS
   @RHF iter   8:  -158.46419131407438   -9.03242e-10   4.34690e-08 DIIS
   @RHF iter   9:  -158.46419131410346   -2.90754e-11   1.00248e-08 DIIS
   @RHF iter  10:  -158.46419131410534   -1.87583e-12   2.50191e-09 DIIS
   @RHF iter  11:  -158.46419131410582   -4.83169e-13   6.97861e-10 DIIS
   @RHF iter  12:  -158.46419131410568    1.42109e-13   2.16169e-10 DIIS
   @RHF iter  13:  -158.46419131410585   -1.70530e-13   3.10358e-11 DIIS
  Energy and wave function converged.


  ==> Post-Iterations <==

    Orbital Energies [Eh]
    ---------------------

    Doubly Occupied:                                                      

       1A    -11.218253     2A    -11.217598     3A    -11.216619  
       4A    -11.214789     5A     -1.022773     6A     -1.018113  
       7A     -0.840073     8A     -0.835273     9A     -0.611438  
      10A     -0.599987    11A     -0.598583    12A     -0.588926  
      13A     -0.504667    14A     -0.500836    15A     -0.490713  
      16A     -0.485268    17A     -0.484543    18A     -0.479811  

    Virtual:                                                              

      19A      0.168756    20A      0.205687    21A      0.224268  
      22A      0.229632    23A      0.249436    24A      0.261479  
      25A      0.263797    26A      0.272450    27A      0.280258  
      28A      0.296791    29A      0.319493    30A      0.359298  
      31A      0.396218    32A      0.404998    33A      0.576923  
      34A      0.589540    35A      0.601366    36A      0.603328  
      37A      0.616977    38A      0.646307    39A      0.671461  
      40A      0.696896    41A      0.727709    42A      0.791581  
      43A      0.843576    44A      0.848497    45A      0.879615  
      46A      0.886846    47A      0.894936    48A      0.898951  
      49A      0.909138    50A      0.913234    51A      0.919241  
      52A      0.935496    53A      0.952588    54A      0.977158  
      55A      0.994255    56A      1.036460    57A      1.121488  
      58A      1.123411    59A      1.131412    60A      1.141113  
      61A      1.234255    62A      1.305105    63A      1.462209  
      64A      1.474309    65A      1.486026    66A      1.495904  
      67A      1.557199    68A      1.609957    69A      1.681241  
      70A      1.689274    71A      1.697018    72A      1.710776  
      73A      1.850229    74A      1.855923    75A      1.869131  
      76A      1.883391    77A      1.897954    78A      1.903187  
      79A      1.930939    80A      1.943234    81A      1.948907  
      82A      1.952508    83A      1.956861    84A      1.962543  
      85A      1.965391    86A      1.976167    87A      1.999858  
      88A      2.031936    89A      2.095496    90A      2.115752  
      91A      2.150468    92A      2.167235    93A      2.294934  
      94A      2.305796    95A      2.315434    96A      2.322191  
      97A      2.430059    98A      2.446694    99A      2.462283  
     100A      2.477987   101A      2.561764   102A      2.574211  
     103A      2.596792   104A      2.604744   105A      2.766875  
     106A      2.775816   107A      2.792162   108A      2.803170  
     109A      2.846503   110A      2.852679   111A      2.862139  
     112A      2.879666   113A      2.940995   114A      2.957499  
     115A      2.990640   116A      2.998995  

    Final Occupation by Irrep:
              A 
    DOCC [    18 ]

  @RHF Final Energy:  -158.46419131410585

   => Energetics <=

    Nuclear Repulsion Energy =            126.1313820322439767
    One-Electron Energy =                -461.3346192029928829
    Two-Electron Energy =                 176.7390458566430880
    Total Energy =                       -158.4641913141058467

Computation Completed


Properties will be evaluated at   0.000000,   0.000000,   0.000000 [a0]

Properties computed using the SCF density matrix

  Nuclear Dipole Moment: [e a0]
     X:     0.0222      Y:     0.0481      Z:     0.0479

  Electronic Dipole Moment: [e a0]
     X:    -0.0401      Y:    -0.0662      Z:    -0.0361

  Dipole Moment: [e a0]
     X:    -0.0179      Y:    -0.0181      Z:     0.0119     Total:     0.0281

  Dipole Moment: [D]
     X:    -0.0454      Y:    -0.0461      Z:     0.0302     Total:     0.0714


*** tstop() called on ds3 at Tue Apr 28 04:00:18 2020
Module time:
	user time   =       8.58 seconds =       0.14 minutes
	system time =       2.51 seconds =       0.04 minutes
	total time  =         22 seconds =       0.37 minutes
Total time:
	user time   =       8.58 seconds =       0.14 minutes
	system time =       2.51 seconds =       0.04 minutes
	total time  =         22 seconds =       0.37 minutes
                                     G D M A

                                 by Anthony Stone

                           version 2.2.06, 22 June 2011

               Distributed Multipoles from Gaussian wavefunctions


Starting at 4:0:18 on 28 Apr 2020   


Using SCF density matrix from file ./SSI/SSI-009LEU-058ILE-1-dimer.test.27133.fchk


                         Distributed Multipole Analysis

Standard DMA

Positions and radii in angstrom
Multipole moments in atomic units, ea_0^k for rank k

C          x =  1.025502  y =  0.656173  z = -1.342074 angstrom
           Maximum rank =  0   Radius =  0.650 angstrom
                   Q00  =  -0.249507

C          x =  1.816502  y =  1.589173  z = -0.432074 angstrom
           Maximum rank =  0   Radius =  0.650 angstrom
                   Q00  =  -0.228485

H          x =  0.626502  y = -0.174827  z = -0.772074 angstrom
           Maximum rank =  0   Radius =  0.325 angstrom
                   Q00  =   0.087923

H          x =  0.193502  y =  1.203173  z = -1.785074 angstrom
           Maximum rank =  0   Radius =  0.325 angstrom
                   Q00  =   0.077155

H          x =  1.670502  y =  0.282173  z = -2.139074 angstrom
           Maximum rank =  0   Radius =  0.325 angstrom
                   Q00  =   0.077506

H          x =  1.132502  y =  1.953173  z =  0.328926 angstrom
           Maximum rank =  0   Radius =  0.325 angstrom
                   Q00  =   0.076229

H          x =  2.661702  y =  1.076173  z =  0.050076 angstrom
           Maximum rank =  0   Radius =  0.325 angstrom
                   Q00  =   0.080023

H          x =  2.171842  y =  2.456583  z = -1.007696 angstrom
           Maximum rank =  0   Radius =  0.325 angstrom
                   Q00  =   0.078535

C          x = -1.273498  y = -1.713827  z =  0.424926 angstrom
           Maximum rank =  0   Radius =  0.650 angstrom
                   Q00  =  -0.235113

C          x = -1.570498  y = -0.535827  z =  1.344926 angstrom
           Maximum rank =  0   Radius =  0.650 angstrom
                   Q00  =  -0.237630

H          x = -1.326498  y = -1.406827  z = -0.619074 angstrom
           Maximum rank =  0   Radius =  0.325 angstrom
                   Q00  =   0.081353

H          x = -0.273498  y = -2.089827  z =  0.638926 angstrom
           Maximum rank =  0   Radius =  0.325 angstrom
                   Q00  =   0.076442

H          x = -1.978498  y = -2.519827  z =  0.605926 angstrom
           Maximum rank =  0   Radius =  0.325 angstrom
                   Q00  =   0.079457

H          x = -0.679498  y =  0.091173  z =  1.392926 angstrom
           Maximum rank =  0   Radius =  0.325 angstrom
                   Q00  =   0.075382

H          x = -1.764498  y = -0.912827  z =  2.342926 angstrom
           Maximum rank =  0   Radius =  0.325 angstrom
                   Q00  =   0.079215

H          x = -2.410352  y =  0.092993  z =  1.014421 angstrom
           Maximum rank =  0   Radius =  0.325 angstrom
                   Q00  =   0.081515

Total multipoles referred to origin at
           x =   0.000000,  y =    0.000000,  z =    0.000000 angstrom
                   Q00  =  -0.000000

Finished at 4:0:18 on 28 Apr 2020   

  DMA results are available in the Python driver through the
	  variable('DMA DISTRIBUTED MULTIPOLES')
  and
	  variable('DMA TOTAL MULTIPOLES')
  commands.


    Psi4 stopped on: Tuesday, 28 April 2020 04:00AM
    Psi4 wall time for execution: 0:00:22.21

*** Psi4 exiting successfully. Buy a developer a beer!
