
    -----------------------------------------------------------------------
          Psi4: An Open-Source Ab Initio Electronic Structure Package
                               Psi4 1.3.2 release

                         Git: Rev {HEAD} ecbda83 


    R. M. Parrish, L. A. Burns, D. G. A. Smith, A. C. Simmonett,
    A. E. DePrince III, E. G. Hohenstein, U. Bozkaya, A. Yu. Sokolov,
    R. Di Remigio, R. M. Richard, J. F. Gonthier, A. M. James,
    H. R. McAlexander, A. Kumar, M. Saitow, X. Wang, B. P. Pritchard,
    P. Verma, H. F. Schaefer III, K. Patkowski, R. A. King, E. F. Valeev,
    F. A. Evangelista, J. M. Turney, T. D. Crawford, and C. D. Sherrill,
    J. Chem. Theory Comput. 13(7) pp 3185--3197 (2017).
    (doi: 10.1021/acs.jctc.7b00174)


                         Additional Contributions by
    P. Kraus, H. Kruse, M. H. Lechner, M. C. Schieber, R. A. Shaw,
    A. Alenaizan, R. Galvelis, Z. L. Glick, S. Lehtola, and J. P. Misiewicz

    -----------------------------------------------------------------------


    Psi4 started on: Tuesday, 28 April 2020 08:07PM

    Process ID: 3927
    Host:       ds3
    PSIDATADIR: /theoryfs2/ds/metcalf/miniconda2/envs/tf2gpu/share/psi4
    Memory:     500.0 MiB
    Threads:    1
    
  ==> Input File <==

--------------------------------------------------------------------------
import numpy as np
set {scf_type pk
basis cc-pvdz
d_convergence 10
gdma_switch   0
gdma_limit    0
gdma_origin   [ 0.0,  0.0,  0.0 ]
}
molecule test {
    units Angstrom
    0 1
    --
    0 1
    C               -1.057419436321385    -0.259759683298959    -2.287037068386303
    C                0.148580563678615     0.489240316701041    -1.705037068386303
    O                0.521580563678615     0.250240316701041    -0.524037068386303
    O                0.723580563678615     1.324240316701041    -2.432037068386303
    H               -1.958419436321385     0.185240316701041    -1.861037068386303
    H               -1.000419436321385    -1.307759683298959    -1.995037068386303
    H               -1.147359436321385    -0.199069683298959    -3.381677068386303
    C               -0.007419436321385     0.021240316701041     2.273962931613697
    C               -1.441419436321385    -0.568759683298959     2.131962931613697
    N                0.998580563678615    -1.084759683298959     2.257962931613697
    H                0.179580563678615     0.754240316701041     1.489962931613697
    H                0.048580563678615     0.553240316701041     3.228962931613697
    H               -2.140419436321385     0.267240316701041     2.208962931613698
    H               -1.630419436321385    -1.227759683298959     2.981962931613698
    H                1.020580563678615    -1.521759683298959     1.343962931613697
    H                1.926580563678615    -0.722759683298959     2.434962931613697
    H                0.798580563678615    -1.788759683298959     2.956962931613697
    H               -1.660639436321385    -1.121379683298959     1.206462931613697

}
e, wfn = energy('scf', return_wfn=True)
gdma(wfn)
dmavals = variable('DMA DISTRIBUTED MULTIPOLES')
charges = np.array(dmavals)
print(charges)
np.save('SSI-070GLU-073LYS-2-dimer.npy', np.array(charges))--------------------------------------------------------------------------

*** tstart() called on ds3
*** at Tue Apr 28 20:07:53 2020

   => Loading Basis Set <=

    Name: CC-PVDZ
    Role: ORBITAL
    Keyword: BASIS
    atoms 1-2, 8-9   entry C          line   138 file /theoryfs2/ds/metcalf/miniconda2/envs/tf2gpu/share/psi4/basis/cc-pvdz.gbs 
    atoms 3-4        entry O          line   198 file /theoryfs2/ds/metcalf/miniconda2/envs/tf2gpu/share/psi4/basis/cc-pvdz.gbs 
    atoms 5-7, 11-18 entry H          line    22 file /theoryfs2/ds/metcalf/miniconda2/envs/tf2gpu/share/psi4/basis/cc-pvdz.gbs 
    atoms 10         entry N          line   168 file /theoryfs2/ds/metcalf/miniconda2/envs/tf2gpu/share/psi4/basis/cc-pvdz.gbs 


         ---------------------------------------------------------
                                   SCF
               by Justin Turney, Rob Parrish, Andy Simmonett
                          and Daniel G. A. Smith
                              RHF Reference
                        1 Threads,    500 MiB Core
         ---------------------------------------------------------

  ==> Geometry <==

    Molecular point group: c1
    Full point group: C1

    Geometry (in Angstrom), charge = 0, multiplicity = 1:

       Center              X                  Y                   Z               Mass       
    ------------   -----------------  -----------------  -----------------  -----------------
         C           -1.057419436321    -0.259759683299    -2.287037068386    12.000000000000
         C            0.148580563679     0.489240316701    -1.705037068386    12.000000000000
         O            0.521580563679     0.250240316701    -0.524037068386    15.994914619570
         O            0.723580563679     1.324240316701    -2.432037068386    15.994914619570
         H           -1.958419436321     0.185240316701    -1.861037068386     1.007825032230
         H           -1.000419436321    -1.307759683299    -1.995037068386     1.007825032230
         H           -1.147359436321    -0.199069683299    -3.381677068386     1.007825032230
         C           -0.007419436321     0.021240316701     2.273962931614    12.000000000000
         C           -1.441419436321    -0.568759683299     2.131962931614    12.000000000000
         N            0.998580563679    -1.084759683299     2.257962931614    14.003074004430
         H            0.179580563679     0.754240316701     1.489962931614     1.007825032230
         H            0.048580563679     0.553240316701     3.228962931614     1.007825032230
         H           -2.140419436321     0.267240316701     2.208962931614     1.007825032230
         H           -1.630419436321    -1.227759683299     2.981962931614     1.007825032230
         H            1.020580563679    -1.521759683299     1.343962931614     1.007825032230
         H            1.926580563679    -0.722759683299     2.434962931614     1.007825032230
         H            0.798580563679    -1.788759683299     2.956962931614     1.007825032230
         H           -1.660639436321    -1.121379683299     1.206462931614     1.007825032230

  Running in c1 symmetry.

  Rotational constants: A =      0.13933  B =      0.03308  C =      0.02959 [cm^-1]
  Rotational constants: A =   4176.88192  B =    991.80922  C =    887.06060 [MHz]
  Nuclear repulsion =  307.207880236105950

  Charge       = 0
  Multiplicity = 1
  Electrons    = 58
  Nalpha       = 29
  Nbeta        = 29

  ==> Algorithm <==

  SCF Algorithm Type is PK.
  DIIS enabled.
  MOM disabled.
  Fractional occupation disabled.
  Guess Type is SAD.
  Energy threshold   = 1.00e-06
  Density threshold  = 1.00e-10
  Integral threshold = 0.00e+00

  ==> Primary Basis <==

  Basis Set: CC-PVDZ
    Blend: CC-PVDZ
    Number of shells: 75
    Number of basis function: 153
    Number of Cartesian functions: 160
    Spherical Harmonics?: true
    Max angular momentum: 2

  ==> Pre-Iterations <==

   -------------------------------------------------------
    Irrep   Nso     Nmo     Nalpha   Nbeta   Ndocc  Nsocc
   -------------------------------------------------------
     A        153     153       0       0       0       0
   -------------------------------------------------------
    Total     153     153      29      29      29       0
   -------------------------------------------------------

  ==> Integral Setup <==

  Using integral reordering PK algorithm.
  Sizing the integral batches needed.
  Building batch lookup table.
   Calculation information:
      Number of atoms:                  18
      Number of AO shells:              75
      Number of primitives:            209
      Number of atomic orbitals:       160
      Number of basis functions:       153

      Integral cutoff                 1.00e-12
      Number of threads:                 1

	Batch   1 pq = [       0,    9405] index = [             0,44231715] size =     44231715
	Batch   2 pq = [    9405,   11781] index = [      44231715,69401871] size =     25170156
  Task number: 7
  Buffer size: 11059200
  Buffer per thread: 2
  We computed 3645463 shell quartets total.
  Whereas there are 4062675 unique shell quartets.

  ==> DiskJK: Disk-Based J/K Matrices <==

    J tasked:                  Yes
    K tasked:                  Yes
    wK tasked:                  No
    Memory [MiB]:              375
    Schwarz Cutoff:          1E-12

    OpenMP threads:              1

  Minimum eigenvalue in the overlap matrix is 5.6776158778E-03.
  Using Symmetric Orthogonalization.

  SCF Guess: Superposition of Atomic Densities via on-the-fly atomic UHF.

  ==> Iterations <==

                        Total Energy        Delta E     RMS |[F,P]|

   @RHF iter SAD:  -360.61020763438137   -3.60610e+02   0.00000e+00 
   @RHF iter   1:  -361.74214350404429   -1.13194e+00   4.74707e-03 DIIS
   @RHF iter   2:  -361.95265968987451   -2.10516e-01   2.62793e-03 DIIS
   @RHF iter   3:  -362.01133438735206   -5.86747e-02   4.56767e-04 DIIS
   @RHF iter   4:  -362.01461231517214   -3.27793e-03   1.59170e-04 DIIS
   @RHF iter   5:  -362.01501123027901   -3.98915e-04   3.15375e-05 DIIS
   @RHF iter   6:  -362.01503362620019   -2.23959e-05   1.72352e-05 DIIS
   @RHF iter   7:  -362.01503762263422   -3.99643e-06   4.53973e-06 DIIS
   @RHF iter   8:  -362.01503846743151   -8.44797e-07   2.10852e-06 DIIS
   @RHF iter   9:  -362.01503862011697   -1.52685e-07   6.01617e-07 DIIS
   @RHF iter  10:  -362.01503863314679   -1.30298e-08   1.83262e-07 DIIS
   @RHF iter  11:  -362.01503863416553   -1.01875e-09   4.27957e-08 DIIS
   @RHF iter  12:  -362.01503863421920   -5.36602e-11   1.01273e-08 DIIS
   @RHF iter  13:  -362.01503863422056   -1.36424e-12   3.47713e-09 DIIS
   @RHF iter  14:  -362.01503863422028    2.84217e-13   1.22179e-09 DIIS
   @RHF iter  15:  -362.01503863422153   -1.25056e-12   4.69496e-10 DIIS
   @RHF iter  16:  -362.01503863422141    1.13687e-13   2.35612e-10 DIIS
   @RHF iter  17:  -362.01503863422170   -2.84217e-13   1.00992e-10 DIIS
   @RHF iter  18:  -362.01503863421897    2.72848e-12   3.21521e-11 DIIS
  Energy and wave function converged.


  ==> Post-Iterations <==

    Orbital Energies [Eh]
    ---------------------

    Doubly Occupied:                                                      

       1A    -20.405253     2A    -20.383674     3A    -15.762456  
       4A    -11.331793     5A    -11.276060     6A    -11.247425  
       7A    -11.165349     8A     -1.380513     9A     -1.280025  
      10A     -1.166799    11A     -1.070927    12A     -0.918701  
      13A     -0.910523    14A     -0.838311    15A     -0.828057  
      16A     -0.717596    17A     -0.653069    18A     -0.624085  
      19A     -0.582100    20A     -0.567027    21A     -0.552372  
      22A     -0.530238    23A     -0.527047    24A     -0.522083  
      25A     -0.465116    26A     -0.431826    27A     -0.321360  
      28A     -0.297152    29A     -0.294709  

    Virtual:                                                              

      30A      0.083051    31A      0.143211    32A      0.159729  
      33A      0.174485    34A      0.211920    35A      0.231275  
      36A      0.236863    37A      0.263508    38A      0.276902  
      39A      0.292423    40A      0.316478    41A      0.321184  
      42A      0.334712    43A      0.359364    44A      0.459279  
      45A      0.510908    46A      0.532600    47A      0.558966  
      48A      0.567665    49A      0.583925    50A      0.593337  
      51A      0.636174    52A      0.711349    53A      0.713110  
      54A      0.752410    55A      0.768652    56A      0.785104  
      57A      0.789070    58A      0.804830    59A      0.830073  
      60A      0.839542    61A      0.844614    62A      0.872947  
      63A      0.879424    64A      0.907608    65A      0.916403  
      66A      0.923614    67A      0.929729    68A      0.941171  
      69A      0.951985    70A      0.967908    71A      0.997733  
      72A      1.012819    73A      1.054651    74A      1.078930  
      75A      1.102929    76A      1.172913    77A      1.226077  
      78A      1.229537    79A      1.306880    80A      1.357391  
      81A      1.382017    82A      1.396926    83A      1.436228  
      84A      1.457965    85A      1.463714    86A      1.501040  
      87A      1.541156    88A      1.551912    89A      1.606509  
      90A      1.608756    91A      1.621475    92A      1.643802  
      93A      1.646433    94A      1.729165    95A      1.732786  
      96A      1.755823    97A      1.794842    98A      1.824609  
      99A      1.847809   100A      1.891486   101A      1.901857  
     102A      1.913212   103A      1.926232   104A      1.939457  
     105A      1.956206   106A      1.974040   107A      1.983383  
     108A      2.013576   109A      2.045274   110A      2.066615  
     111A      2.074486   112A      2.097545   113A      2.111055  
     114A      2.128403   115A      2.143364   116A      2.177024  
     117A      2.223197   118A      2.265881   119A      2.296885  
     120A      2.311022   121A      2.316223   122A      2.318573  
     123A      2.427838   124A      2.440350   125A      2.475798  
     126A      2.491276   127A      2.553860   128A      2.564327  
     129A      2.593700   130A      2.651104   131A      2.664006  
     132A      2.677706   133A      2.720584   134A      2.781589  
     135A      2.804380   136A      2.822938   137A      2.858688  
     138A      2.874087   139A      2.881385   140A      2.935045  
     141A      3.014261   142A      3.110238   143A      3.141445  
     144A      3.160336   145A      3.225580   146A      3.232944  
     147A      3.261804   148A      3.498151   149A      3.643883  
     150A      3.688245   151A      3.936959   152A      3.965634  
     153A      4.058772  

    Final Occupation by Irrep:
              A 
    DOCC [    29 ]

  @RHF Final Energy:  -362.01503863421897

   => Energetics <=

    Nuclear Repulsion Energy =            307.2078802361059502
    One-Electron Energy =               -1104.3425468100449507
    Two-Electron Energy =                 435.1196279397200897
    Total Energy =                       -362.0150386342189677

Computation Completed


Properties will be evaluated at   0.000000,   0.000000,   0.000000 [a0]

Properties computed using the SCF density matrix

  Nuclear Dipole Moment: [e a0]
     X:    -5.2128      Y:    -5.7353      Z:     9.9300

  Electronic Dipole Moment: [e a0]
     X:     5.1817      Y:     2.8272      Z:    -4.1708

  Dipole Moment: [e a0]
     X:    -0.0310      Y:    -2.9081      Z:     5.7591     Total:     6.4518

  Dipole Moment: [D]
     X:    -0.0789      Y:    -7.3916      Z:    14.6383     Total:    16.3988


*** tstop() called on ds3 at Tue Apr 28 20:08:30 2020
Module time:
	user time   =      25.16 seconds =       0.42 minutes
	system time =      12.26 seconds =       0.20 minutes
	total time  =         37 seconds =       0.62 minutes
Total time:
	user time   =      25.16 seconds =       0.42 minutes
	system time =      12.26 seconds =       0.20 minutes
	total time  =         37 seconds =       0.62 minutes
                                     G D M A

                                 by Anthony Stone

                           version 2.2.06, 22 June 2011

               Distributed Multipoles from Gaussian wavefunctions


Starting at 20:8:30 on 28 Apr 2020  


Using SCF density matrix from file ./SSI/SSI-070GLU-073LYS-2-dimer.test.3927.fchk


                         Distributed Multipole Analysis

Standard DMA

Positions and radii in angstrom
Multipole moments in atomic units, ea_0^k for rank k

C          x = -1.057419  y = -0.259760  z = -2.287037 angstrom
           Maximum rank =  0   Radius =  0.650 angstrom
                   Q00  =  -0.280224

C          x =  0.148581  y =  0.489240  z = -1.705037 angstrom
           Maximum rank =  0   Radius =  0.650 angstrom
                   Q00  =   0.934614

O          x =  0.521581  y =  0.250240  z = -0.524037 angstrom
           Maximum rank =  0   Radius =  0.650 angstrom
                   Q00  =  -0.972274

O          x =  0.723581  y =  1.324240  z = -2.432037 angstrom
           Maximum rank =  0   Radius =  0.650 angstrom
                   Q00  =  -0.865651

H          x = -1.958419  y =  0.185240  z = -1.861037 angstrom
           Maximum rank =  0   Radius =  0.325 angstrom
                   Q00  =   0.083147

H          x = -1.000419  y = -1.307760  z = -1.995037 angstrom
           Maximum rank =  0   Radius =  0.325 angstrom
                   Q00  =   0.049948

H          x = -1.147359  y = -0.199070  z = -3.381677 angstrom
           Maximum rank =  0   Radius =  0.325 angstrom
                   Q00  =   0.092335

C          x = -0.007419  y =  0.021240  z =  2.273963 angstrom
           Maximum rank =  0   Radius =  0.650 angstrom
                   Q00  =   0.011346

C          x = -1.441419  y = -0.568760  z =  2.131963 angstrom
           Maximum rank =  0   Radius =  0.650 angstrom
                   Q00  =  -0.237720

N          x =  0.998581  y = -1.084760  z =  2.257963 angstrom
           Maximum rank =  0   Radius =  0.650 angstrom
                   Q00  =  -0.114629

H          x =  0.179581  y =  0.754240  z =  1.489963 angstrom
           Maximum rank =  0   Radius =  0.325 angstrom
                   Q00  =   0.173742

H          x =  0.048581  y =  0.553240  z =  3.228963 angstrom
           Maximum rank =  0   Radius =  0.325 angstrom
                   Q00  =   0.074644

H          x = -2.140419  y =  0.267240  z =  2.208963 angstrom
           Maximum rank =  0   Radius =  0.325 angstrom
                   Q00  =   0.133000

H          x = -1.630419  y = -1.227760  z =  2.981963 angstrom
           Maximum rank =  0   Radius =  0.325 angstrom
                   Q00  =   0.056517

H          x =  1.020581  y = -1.521760  z =  1.343963 angstrom
           Maximum rank =  0   Radius =  0.325 angstrom
                   Q00  =   0.267076

H          x =  1.926581  y = -0.722760  z =  2.434963 angstrom
           Maximum rank =  0   Radius =  0.325 angstrom
                   Q00  =   0.241097

H          x =  0.798581  y = -1.788760  z =  2.956963 angstrom
           Maximum rank =  0   Radius =  0.325 angstrom
                   Q00  =   0.223933

H          x = -1.660639  y = -1.121380  z =  1.206463 angstrom
           Maximum rank =  0   Radius =  0.325 angstrom
                   Q00  =   0.129100

Total multipoles referred to origin at
           x =   0.000000,  y =    0.000000,  z =    0.000000 angstrom
                   Q00  =  -0.000000

Finished at 20:8:30 on 28 Apr 2020  

  DMA results are available in the Python driver through the
	  variable('DMA DISTRIBUTED MULTIPOLES')
  and
	  variable('DMA TOTAL MULTIPOLES')
  commands.


    Psi4 stopped on: Tuesday, 28 April 2020 08:08PM
    Psi4 wall time for execution: 0:00:36.85

*** Psi4 exiting successfully. Buy a developer a beer!
