
    -----------------------------------------------------------------------
          Psi4: An Open-Source Ab Initio Electronic Structure Package
                               Psi4 1.3.2 release

                         Git: Rev {HEAD} ecbda83 


    R. M. Parrish, L. A. Burns, D. G. A. Smith, A. C. Simmonett,
    A. E. DePrince III, E. G. Hohenstein, U. Bozkaya, A. Yu. Sokolov,
    R. Di Remigio, R. M. Richard, J. F. Gonthier, A. M. James,
    H. R. McAlexander, A. Kumar, M. Saitow, X. Wang, B. P. Pritchard,
    P. Verma, H. F. Schaefer III, K. Patkowski, R. A. King, E. F. Valeev,
    F. A. Evangelista, J. M. Turney, T. D. Crawford, and C. D. Sherrill,
    J. Chem. Theory Comput. 13(7) pp 3185--3197 (2017).
    (doi: 10.1021/acs.jctc.7b00174)


                         Additional Contributions by
    P. Kraus, H. Kruse, M. H. Lechner, M. C. Schieber, R. A. Shaw,
    A. Alenaizan, R. Galvelis, Z. L. Glick, S. Lehtola, and J. P. Misiewicz

    -----------------------------------------------------------------------


    Psi4 started on: Monday, 27 April 2020 08:44PM

    Process ID: 17047
    Host:       ds3
    PSIDATADIR: /theoryfs2/ds/metcalf/miniconda2/envs/tf2gpu/share/psi4
    Memory:     500.0 MiB
    Threads:    1
    
  ==> Input File <==

--------------------------------------------------------------------------
import numpy as np
set {scf_type pk
basis cc-pvdz
d_convergence 10
gdma_switch   0
gdma_limit    0
gdma_origin   [ 0.0,  0.0,  0.0 ]
}
molecule test {
    units Angstrom
    0 1
    --
    0 1
    C                0.558691050937960    -0.178891807192583    -0.170243667523936
    C                1.794691050937960    -2.123891807192583     1.185756332476064
    S                0.193691050937960    -1.300891807192583     1.165756332476064
    H               -0.059308949062040    -0.440891807192583    -1.024243667523936
    H                0.342691050937960     0.808108192807417     0.220756332476064
    H                1.612691050937960    -0.190891807192583    -0.442243667523936
    H                1.781691050937960    -2.876891807192583     1.965756332476065
    H                2.547691050937960    -1.378891807192583     1.447756332476065
    H                2.095351050937960    -2.639621807192583     0.261836332476064
    C               -1.101308949062040     2.210108192807417    -1.115243667523936
    C               -1.741308949062040     2.855108192807418    -2.336243667523935
    H               -1.544308949062040     2.515108192807417    -0.170243667523936
    H               -1.314308949062040     1.153108192807417    -1.224243667523936
    H               -0.031308949062040     2.418108192807417    -1.114243667523936
    H               -2.755308949062040     2.479108192807417    -2.439243667523936
    H               -1.800692949062040     3.945938192807417    -2.207573667523936
    H               -1.194252949062040     2.585168192807417    -3.251593667523935

}
e, wfn = energy('scf', return_wfn=True)
gdma(wfn)
dmavals = variable('DMA DISTRIBUTED MULTIPOLES')
charges = np.array(dmavals)
print(charges)
np.save('SSI-036MET-054VAL-1-dimer.npy', np.array(charges))--------------------------------------------------------------------------

*** tstart() called on ds3
*** at Mon Apr 27 20:44:42 2020

   => Loading Basis Set <=

    Name: CC-PVDZ
    Role: ORBITAL
    Keyword: BASIS
    atoms 1-2, 10-11 entry C          line   138 file /theoryfs2/ds/metcalf/miniconda2/envs/tf2gpu/share/psi4/basis/cc-pvdz.gbs 
    atoms 3          entry S          line   598 file /theoryfs2/ds/metcalf/miniconda2/envs/tf2gpu/share/psi4/basis/cc-pvdz.gbs 
    atoms 4-9, 12-17 entry H          line    22 file /theoryfs2/ds/metcalf/miniconda2/envs/tf2gpu/share/psi4/basis/cc-pvdz.gbs 


         ---------------------------------------------------------
                                   SCF
               by Justin Turney, Rob Parrish, Andy Simmonett
                          and Daniel G. A. Smith
                              RHF Reference
                        1 Threads,    500 MiB Core
         ---------------------------------------------------------

  ==> Geometry <==

    Molecular point group: c1
    Full point group: C1

    Geometry (in Angstrom), charge = 0, multiplicity = 1:

       Center              X                  Y                   Z               Mass       
    ------------   -----------------  -----------------  -----------------  -----------------
         C            0.558691050938    -0.178891807193    -0.170243667524    12.000000000000
         C            1.794691050938    -2.123891807193     1.185756332476    12.000000000000
         S            0.193691050938    -1.300891807193     1.165756332476    31.972071174400
         H           -0.059308949062    -0.440891807193    -1.024243667524     1.007825032230
         H            0.342691050938     0.808108192807     0.220756332476     1.007825032230
         H            1.612691050938    -0.190891807193    -0.442243667524     1.007825032230
         H            1.781691050938    -2.876891807193     1.965756332476     1.007825032230
         H            2.547691050938    -1.378891807193     1.447756332476     1.007825032230
         H            2.095351050938    -2.639621807193     0.261836332476     1.007825032230
         C           -1.101308949062     2.210108192807    -1.115243667524    12.000000000000
         C           -1.741308949062     2.855108192807    -2.336243667524    12.000000000000
         H           -1.544308949062     2.515108192807    -0.170243667524     1.007825032230
         H           -1.314308949062     1.153108192807    -1.224243667524     1.007825032230
         H           -0.031308949062     2.418108192807    -1.114243667524     1.007825032230
         H           -2.755308949062     2.479108192807    -2.439243667524     1.007825032230
         H           -1.800692949062     3.945938192807    -2.207573667524     1.007825032230
         H           -1.194252949062     2.585168192807    -3.251593667524     1.007825032230

  Running in c1 symmetry.

  Rotational constants: A =      0.43265  B =      0.02825  C =      0.02733 [cm^-1]
  Rotational constants: A =  12970.58553  B =    846.98544  C =    819.33545 [MHz]
  Nuclear repulsion =  222.629503161444433

  Charge       = 0
  Multiplicity = 1
  Electrons    = 52
  Nalpha       = 26
  Nbeta        = 26

  ==> Algorithm <==

  SCF Algorithm Type is PK.
  DIIS enabled.
  MOM disabled.
  Fractional occupation disabled.
  Guess Type is SAD.
  Energy threshold   = 1.00e-06
  Density threshold  = 1.00e-10
  Integral threshold = 0.00e+00

  ==> Primary Basis <==

  Basis Set: CC-PVDZ
    Blend: CC-PVDZ
    Number of shells: 68
    Number of basis function: 134
    Number of Cartesian functions: 139
    Spherical Harmonics?: true
    Max angular momentum: 2

  ==> Pre-Iterations <==

   -------------------------------------------------------
    Irrep   Nso     Nmo     Nalpha   Nbeta   Ndocc  Nsocc
   -------------------------------------------------------
     A        134     134       0       0       0       0
   -------------------------------------------------------
    Total     134     134      26      26      26       0
   -------------------------------------------------------

  ==> Integral Setup <==

  Using integral reordering PK algorithm.
  Sizing the integral batches needed.
  Building batch lookup table.
   Calculation information:
      Number of atoms:                  17
      Number of AO shells:              68
      Number of primitives:            198
      Number of atomic orbitals:       139
      Number of basis functions:       134

      Integral cutoff                 1.00e-12
      Number of threads:                 1

	Batch   1 pq = [       0,    9045] index = [             0,40910535] size =     40910535
  Task number: 4
  Buffer size: 11059200
  Buffer per thread: 2
  We computed 2119066 shell quartets total.
  Whereas there are 2753031 unique shell quartets.

  ==> DiskJK: Disk-Based J/K Matrices <==

    J tasked:                  Yes
    K tasked:                  Yes
    wK tasked:                  No
    Memory [MiB]:              375
    Schwarz Cutoff:          1E-12

    OpenMP threads:              1

  Minimum eigenvalue in the overlap matrix is 6.0335548054E-03.
  Using Symmetric Orthogonalization.

  SCF Guess: Superposition of Atomic Densities via on-the-fly atomic UHF.

  ==> Iterations <==

                        Total Energy        Delta E     RMS |[F,P]|

   @RHF iter SAD:  -555.07692801411361   -5.55077e+02   0.00000e+00 
   @RHF iter   1:  -555.82410988122979   -7.47182e-01   3.41763e-03 DIIS
   @RHF iter   2:  -555.95085842281640   -1.26749e-01   1.34356e-03 DIIS
   @RHF iter   3:  -555.96905868068450   -1.82003e-02   3.20974e-04 DIIS
   @RHF iter   4:  -555.97098782808155   -1.92915e-03   5.14577e-05 DIIS
   @RHF iter   5:  -555.97103142560081   -4.35975e-05   1.26825e-05 DIIS
   @RHF iter   6:  -555.97103413750074   -2.71190e-06   3.38285e-06 DIIS
   @RHF iter   7:  -555.97103432778431   -1.90284e-07   8.52009e-07 DIIS
   @RHF iter   8:  -555.97103434386884   -1.60845e-08   2.35293e-07 DIIS
   @RHF iter   9:  -555.97103434541680   -1.54796e-09   7.40281e-08 DIIS
   @RHF iter  10:  -555.97103434558744   -1.70644e-10   2.56274e-08 DIIS
   @RHF iter  11:  -555.97103434561018   -2.27374e-11   9.02982e-09 DIIS
   @RHF iter  12:  -555.97103434561632   -6.13909e-12   3.56884e-09 DIIS
   @RHF iter  13:  -555.97103434561700   -6.82121e-13   9.39947e-10 DIIS
   @RHF iter  14:  -555.97103434561689    1.13687e-13   2.23156e-10 DIIS
   @RHF iter  15:  -555.97103434561677    1.13687e-13   6.66891e-11 DIIS
  Energy and wave function converged.


  ==> Post-Iterations <==

    Orbital Energies [Eh]
    ---------------------

    Doubly Occupied:                                                      

       1A    -91.931463     2A    -11.252289     3A    -11.245026  
       4A    -11.218940     5A    -11.216523     6A     -8.935941  
       7A     -6.618034     8A     -6.616415     9A     -6.614137  
      10A     -1.065832    11A     -1.024002    12A     -0.948175  
      13A     -0.841244    14A     -0.802492    15A     -0.614816  
      16A     -0.605201    17A     -0.598166    18A     -0.595861  
      19A     -0.568974    20A     -0.564013    21A     -0.509053  
      22A     -0.494621    23A     -0.487449    24A     -0.461228  
      25A     -0.434404    26A     -0.327820  

    Virtual:                                                              

      27A      0.172285    28A      0.182330    29A      0.198723  
      30A      0.230204    31A      0.235522    32A      0.243544  
      33A      0.254001    34A      0.255472    35A      0.268429  
      36A      0.275155    37A      0.281929    38A      0.288162  
      39A      0.309487    40A      0.339580    41A      0.415736  
      42A      0.555081    43A      0.573322    44A      0.590126  
      45A      0.593343    46A      0.603543    47A      0.611714  
      48A      0.622982    49A      0.639056    50A      0.674987  
      51A      0.701988    52A      0.727049    53A      0.744213  
      54A      0.795109    55A      0.816886    56A      0.840316  
      57A      0.858504    58A      0.866717    59A      0.872968  
      60A      0.877419    61A      0.890900    62A      0.894938  
      63A      0.897341    64A      0.901685    65A      0.915119  
      66A      0.917391    67A      0.928850    68A      0.935295  
      69A      0.962005    70A      0.967858    71A      0.983483  
      72A      1.026444    73A      1.114867    74A      1.150360  
      75A      1.208374    76A      1.245424    77A      1.283871  
      78A      1.309427    79A      1.353837    80A      1.361190  
      81A      1.391553    82A      1.453429    83A      1.470889  
      84A      1.515438    85A      1.536137    86A      1.600228  
      87A      1.665100    88A      1.679983    89A      1.687222  
      90A      1.706842    91A      1.852524    92A      1.862854  
      93A      1.881076    94A      1.889615    95A      1.896220  
      96A      1.907052    97A      1.923128    98A      1.935597  
      99A      1.944451   100A      1.954884   101A      1.956236  
     102A      1.980248   103A      2.000118   104A      2.008390  
     105A      2.026817   106A      2.042062   107A      2.084121  
     108A      2.118603   109A      2.136240   110A      2.162279  
     111A      2.238066   112A      2.262107   113A      2.302771  
     114A      2.345037   115A      2.412737   116A      2.435050  
     117A      2.442776   118A      2.448818   119A      2.476132  
     120A      2.516410   121A      2.564630   122A      2.595007  
     123A      2.736483   124A      2.762702   125A      2.777966  
     126A      2.783947   127A      2.790401   128A      2.816572  
     129A      2.835369   130A      2.843675   131A      2.864018  
     132A      2.885392   133A      2.956682   134A      2.970684  

    Final Occupation by Irrep:
              A 
    DOCC [    26 ]

  @RHF Final Energy:  -555.97103434561677

   => Energetics <=

    Nuclear Repulsion Energy =            222.6295031614444326
    One-Electron Energy =               -1204.0168392703913014
    Two-Electron Energy =                 425.4163017633301251
    Total Energy =                       -555.9710343456167720

Computation Completed


Properties will be evaluated at   0.000000,   0.000000,   0.000000 [a0]

Properties computed using the SCF density matrix

  Nuclear Dipole Moment: [e a0]
     X:    -0.2943      Y:     7.8193      Z:    -7.4479

  Electronic Dipole Moment: [e a0]
     X:     0.8119      Y:    -7.6939      Z:     7.0781

  Dipole Moment: [e a0]
     X:     0.5176      Y:     0.1254      Z:    -0.3699     Total:     0.6484

  Dipole Moment: [D]
     X:     1.3156      Y:     0.3188      Z:    -0.9401     Total:     1.6481


*** tstop() called on ds3 at Mon Apr 27 20:45:04 2020
Module time:
	user time   =      16.81 seconds =       0.28 minutes
	system time =       5.87 seconds =       0.10 minutes
	total time  =         22 seconds =       0.37 minutes
Total time:
	user time   =      16.81 seconds =       0.28 minutes
	system time =       5.87 seconds =       0.10 minutes
	total time  =         22 seconds =       0.37 minutes
                                     G D M A

                                 by Anthony Stone

                           version 2.2.06, 22 June 2011

               Distributed Multipoles from Gaussian wavefunctions


Starting at 20:45:4 on 27 Apr 2020  


Using SCF density matrix from file ./SSI/SSI-036MET-054VAL-1-dimer.test.17047.fchk


                         Distributed Multipole Analysis

Standard DMA

Positions and radii in angstrom
Multipole moments in atomic units, ea_0^k for rank k

C          x =  0.558691  y = -0.178892  z = -0.170244 angstrom
           Maximum rank =  0   Radius =  0.650 angstrom
                   Q00  =  -0.335075

C          x =  1.794691  y = -2.123892  z =  1.185756 angstrom
           Maximum rank =  0   Radius =  0.650 angstrom
                   Q00  =  -0.360738

S          x =  0.193691  y = -1.300892  z =  1.165756 angstrom
           Maximum rank =  0   Radius =  0.650 angstrom
                   Q00  =   0.118857

H          x = -0.059309  y = -0.440892  z = -1.024244 angstrom
           Maximum rank =  0   Radius =  0.325 angstrom
                   Q00  =   0.092313

H          x =  0.342691  y =  0.808108  z =  0.220756 angstrom
           Maximum rank =  0   Radius =  0.325 angstrom
                   Q00  =   0.101648

H          x =  1.612691  y = -0.190892  z = -0.442244 angstrom
           Maximum rank =  0   Radius =  0.325 angstrom
                   Q00  =   0.096624

H          x =  1.781691  y = -2.876892  z =  1.965756 angstrom
           Maximum rank =  0   Radius =  0.325 angstrom
                   Q00  =   0.113302

H          x =  2.547691  y = -1.378892  z =  1.447756 angstrom
           Maximum rank =  0   Radius =  0.325 angstrom
                   Q00  =   0.078983

H          x =  2.095351  y = -2.639622  z =  0.261836 angstrom
           Maximum rank =  0   Radius =  0.325 angstrom
                   Q00  =   0.088771

C          x = -1.101309  y =  2.210108  z = -1.115244 angstrom
           Maximum rank =  0   Radius =  0.650 angstrom
                   Q00  =  -0.243717

C          x = -1.741309  y =  2.855108  z = -2.336244 angstrom
           Maximum rank =  0   Radius =  0.650 angstrom
                   Q00  =  -0.217791

H          x = -1.544309  y =  2.515108  z = -0.170244 angstrom
           Maximum rank =  0   Radius =  0.325 angstrom
                   Q00  =   0.085914

H          x = -1.314309  y =  1.153108  z = -1.224244 angstrom
           Maximum rank =  0   Radius =  0.325 angstrom
                   Q00  =   0.076226

H          x = -0.031309  y =  2.418108  z = -1.114244 angstrom
           Maximum rank =  0   Radius =  0.325 angstrom
                   Q00  =   0.070538

H          x = -2.755309  y =  2.479108  z = -2.439244 angstrom
           Maximum rank =  0   Radius =  0.325 angstrom
                   Q00  =   0.077507

H          x = -1.800693  y =  3.945938  z = -2.207574 angstrom
           Maximum rank =  0   Radius =  0.325 angstrom
                   Q00  =   0.077580

H          x = -1.194253  y =  2.585168  z = -3.251594 angstrom
           Maximum rank =  0   Radius =  0.325 angstrom
                   Q00  =   0.079055

Total multipoles referred to origin at
           x =   0.000000,  y =    0.000000,  z =    0.000000 angstrom
                   Q00  =  -0.000000

Finished at 20:45:4 on 27 Apr 2020  

  DMA results are available in the Python driver through the
	  variable('DMA DISTRIBUTED MULTIPOLES')
  and
	  variable('DMA TOTAL MULTIPOLES')
  commands.


    Psi4 stopped on: Monday, 27 April 2020 08:45PM
    Psi4 wall time for execution: 0:00:22.49

*** Psi4 exiting successfully. Buy a developer a beer!
