
    -----------------------------------------------------------------------
          Psi4: An Open-Source Ab Initio Electronic Structure Package
                               Psi4 1.3.2 release

                         Git: Rev {HEAD} ecbda83 


    R. M. Parrish, L. A. Burns, D. G. A. Smith, A. C. Simmonett,
    A. E. DePrince III, E. G. Hohenstein, U. Bozkaya, A. Yu. Sokolov,
    R. Di Remigio, R. M. Richard, J. F. Gonthier, A. M. James,
    H. R. McAlexander, A. Kumar, M. Saitow, X. Wang, B. P. Pritchard,
    P. Verma, H. F. Schaefer III, K. Patkowski, R. A. King, E. F. Valeev,
    F. A. Evangelista, J. M. Turney, T. D. Crawford, and C. D. Sherrill,
    J. Chem. Theory Comput. 13(7) pp 3185--3197 (2017).
    (doi: 10.1021/acs.jctc.7b00174)


                         Additional Contributions by
    P. Kraus, H. Kruse, M. H. Lechner, M. C. Schieber, R. A. Shaw,
    A. Alenaizan, R. Galvelis, Z. L. Glick, S. Lehtola, and J. P. Misiewicz

    -----------------------------------------------------------------------


    Psi4 started on: Tuesday, 28 April 2020 12:12AM

    Process ID: 4972
    Host:       ds3
    PSIDATADIR: /theoryfs2/ds/metcalf/miniconda2/envs/tf2gpu/share/psi4
    Memory:     500.0 MiB
    Threads:    1
    
  ==> Input File <==

--------------------------------------------------------------------------
import numpy as np
set {scf_type pk
basis cc-pvdz
d_convergence 10
gdma_switch   0
gdma_limit    0
gdma_origin   [ 0.0,  0.0,  0.0 ]
}
molecule test {
    units Angstrom
    0 1
    --
    0 1
    C                0.849066566326797     0.262687899981233     1.431224230412266
    C                1.819066566326797     0.304687899981233     2.610224230412266
    H                1.262066566326797     0.817687899981233     0.587224230412266
    H                0.700066566326797    -0.774312100018767     1.136224230412266
    H               -0.109933433673203     0.697687899981232     1.717224230412266
    H                2.762066566326797    -0.105312100018767     2.272224230412266
    H                1.980676566326797     1.346504899981233     2.924068130412266
    H                1.453986566326797    -0.322501100018767     3.436874730412266
    C               -1.265933433673202     0.437687899981233    -1.790775769587734
    C               -1.400933433673203    -1.003312100018767    -2.251775769587734
    H               -0.325933433673203     0.851687899981233    -2.153775769587734
    H               -2.088933433673203     1.032687899981233    -2.182775769587734
    H               -1.280933433673203     0.479687899981233    -0.700775769587734
    H               -2.311933433673202    -1.399312100018767    -1.803775769587734
    H               -0.538130433673203    -1.573019900018767    -1.876269769587734
    H               -1.518142433673203    -1.072343100018767    -3.343332769587734

}
e, wfn = energy('scf', return_wfn=True)
gdma(wfn)
dmavals = variable('DMA DISTRIBUTED MULTIPOLES')
charges = np.array(dmavals)
print(charges)
np.save('SSI-013LEU-069LEU-1-dimer.npy', np.array(charges))--------------------------------------------------------------------------

*** tstart() called on ds3
*** at Tue Apr 28 00:12:56 2020

   => Loading Basis Set <=

    Name: CC-PVDZ
    Role: ORBITAL
    Keyword: BASIS
    atoms 1-2, 9-10  entry C          line   138 file /theoryfs2/ds/metcalf/miniconda2/envs/tf2gpu/share/psi4/basis/cc-pvdz.gbs 
    atoms 3-8, 11-16 entry H          line    22 file /theoryfs2/ds/metcalf/miniconda2/envs/tf2gpu/share/psi4/basis/cc-pvdz.gbs 


         ---------------------------------------------------------
                                   SCF
               by Justin Turney, Rob Parrish, Andy Simmonett
                          and Daniel G. A. Smith
                              RHF Reference
                        1 Threads,    500 MiB Core
         ---------------------------------------------------------

  ==> Geometry <==

    Molecular point group: c1
    Full point group: C1

    Geometry (in Angstrom), charge = 0, multiplicity = 1:

       Center              X                  Y                   Z               Mass       
    ------------   -----------------  -----------------  -----------------  -----------------
         C            0.849066566327     0.262687899981     1.431224230412    12.000000000000
         C            1.819066566327     0.304687899981     2.610224230412    12.000000000000
         H            1.262066566327     0.817687899981     0.587224230412     1.007825032230
         H            0.700066566327    -0.774312100019     1.136224230412     1.007825032230
         H           -0.109933433673     0.697687899981     1.717224230412     1.007825032230
         H            2.762066566327    -0.105312100019     2.272224230412     1.007825032230
         H            1.980676566327     1.346504899981     2.924068130412     1.007825032230
         H            1.453986566327    -0.322501100019     3.436874730412     1.007825032230
         C           -1.265933433673     0.437687899981    -1.790775769588    12.000000000000
         C           -1.400933433673    -1.003312100019    -2.251775769588    12.000000000000
         H           -0.325933433673     0.851687899981    -2.153775769588     1.007825032230
         H           -2.088933433673     1.032687899981    -2.182775769588     1.007825032230
         H           -1.280933433673     0.479687899981    -0.700775769588     1.007825032230
         H           -2.311933433673    -1.399312100019    -1.803775769588     1.007825032230
         H           -0.538130433673    -1.573019900019    -1.876269769588     1.007825032230
         H           -1.518142433673    -1.072343100019    -3.343332769588     1.007825032230

  Running in c1 symmetry.

  Rotational constants: A =      0.59759  B =      0.04309  C =      0.04147 [cm^-1]
  Rotational constants: A =  17915.27590  B =   1291.83395  C =   1243.24175 [MHz]
  Nuclear repulsion =  120.580046249372813

  Charge       = 0
  Multiplicity = 1
  Electrons    = 36
  Nalpha       = 18
  Nbeta        = 18

  ==> Algorithm <==

  SCF Algorithm Type is PK.
  DIIS enabled.
  MOM disabled.
  Fractional occupation disabled.
  Guess Type is SAD.
  Energy threshold   = 1.00e-06
  Density threshold  = 1.00e-10
  Integral threshold = 0.00e+00

  ==> Primary Basis <==

  Basis Set: CC-PVDZ
    Blend: CC-PVDZ
    Number of shells: 60
    Number of basis function: 116
    Number of Cartesian functions: 120
    Spherical Harmonics?: true
    Max angular momentum: 2

  ==> Pre-Iterations <==

   -------------------------------------------------------
    Irrep   Nso     Nmo     Nalpha   Nbeta   Ndocc  Nsocc
   -------------------------------------------------------
     A        116     116       0       0       0       0
   -------------------------------------------------------
    Total     116     116      18      18      18       0
   -------------------------------------------------------

  ==> Integral Setup <==

  Using integral reordering PK algorithm.
  Sizing the integral batches needed.
  Building batch lookup table.
   Calculation information:
      Number of atoms:                  16
      Number of AO shells:              60
      Number of primitives:            148
      Number of atomic orbitals:       120
      Number of basis functions:       116

      Integral cutoff                 1.00e-12
      Number of threads:                 1

	Batch   1 pq = [       0,    6786] index = [             0,23028291] size =     23028291
  Task number: 3
  Buffer size: 11059200
  Buffer per thread: 2
  We computed 1367391 shell quartets total.
  Whereas there are 1675365 unique shell quartets.

  ==> DiskJK: Disk-Based J/K Matrices <==

    J tasked:                  Yes
    K tasked:                  Yes
    wK tasked:                  No
    Memory [MiB]:              375
    Schwarz Cutoff:          1E-12

    OpenMP threads:              1

  Minimum eigenvalue in the overlap matrix is 6.5035739310E-03.
  Using Symmetric Orthogonalization.

  SCF Guess: Superposition of Atomic Densities via on-the-fly atomic UHF.

  ==> Iterations <==

                        Total Energy        Delta E     RMS |[F,P]|

   @RHF iter SAD:  -157.36543280893412   -1.57365e+02   0.00000e+00 
   @RHF iter   1:  -158.30554101355230   -9.40108e-01   4.24144e-03 DIIS
   @RHF iter   2:  -158.44011307038517   -1.34572e-01   1.81321e-03 DIIS
   @RHF iter   3:  -158.46392751470560   -2.38144e-02   3.50480e-04 DIIS
   @RHF iter   4:  -158.46576640740915   -1.83889e-03   3.87446e-05 DIIS
   @RHF iter   5:  -158.46579020219556   -2.37948e-05   6.43283e-06 DIIS
   @RHF iter   6:  -158.46579082962393   -6.27428e-07   9.38247e-07 DIIS
   @RHF iter   7:  -158.46579083891564   -9.29171e-09   2.96444e-07 DIIS
   @RHF iter   8:  -158.46579083965065   -7.35014e-10   3.95125e-08 DIIS
   @RHF iter   9:  -158.46579083967362   -2.29647e-11   7.89878e-09 DIIS
   @RHF iter  10:  -158.46579083967472   -1.10845e-12   2.20159e-09 DIIS
   @RHF iter  11:  -158.46579083967464    8.52651e-14   6.75954e-10 DIIS
   @RHF iter  12:  -158.46579083967438    2.55795e-13   1.66799e-10 DIIS
   @RHF iter  13:  -158.46579083967495   -5.68434e-13   2.63596e-11 DIIS
  Energy and wave function converged.


  ==> Post-Iterations <==

    Orbital Energies [Eh]
    ---------------------

    Doubly Occupied:                                                      

       1A    -11.218636     2A    -11.217518     3A    -11.217333  
       4A    -11.213986     5A     -1.020862     6A     -1.019214  
       7A     -0.837370     8A     -0.832387     9A     -0.601694  
      10A     -0.601094    11A     -0.599129    12A     -0.596312  
      13A     -0.503649    14A     -0.495713    15A     -0.488678  
      16A     -0.486284    17A     -0.484584    18A     -0.479649  

    Virtual:                                                              

      19A      0.171313    20A      0.193994    21A      0.224909  
      22A      0.232888    23A      0.235136    24A      0.261067  
      25A      0.267461    26A      0.272816    27A      0.278409  
      28A      0.295281    29A      0.310665    30A      0.326295  
      31A      0.392961    32A      0.413229    33A      0.577740  
      34A      0.595467    35A      0.598416    36A      0.600532  
      37A      0.608186    38A      0.645226    39A      0.672472  
      40A      0.685567    41A      0.687988    42A      0.742487  
      43A      0.850576    44A      0.868871    45A      0.884501  
      46A      0.887798    47A      0.894350    48A      0.894996  
      49A      0.899487    50A      0.913929    51A      0.917212  
      52A      0.920576    53A      0.932927    54A      0.950136  
      55A      0.973640    56A      1.011253    57A      1.123974  
      58A      1.128448    59A      1.129717    60A      1.132738  
      61A      1.237003    62A      1.253198    63A      1.469134  
      64A      1.480183    65A      1.484426    66A      1.496720  
      67A      1.562402    68A      1.580970    69A      1.676567  
      70A      1.677206    71A      1.690960    72A      1.695449  
      73A      1.839830    74A      1.857755    75A      1.861801  
      76A      1.873301    77A      1.902752    78A      1.916165  
      79A      1.938231    80A      1.939640    81A      1.944468  
      82A      1.955193    83A      1.955783    84A      1.958586  
      85A      1.967006    86A      1.978490    87A      1.983701  
      88A      2.038577    89A      2.093849    90A      2.100046  
      91A      2.121049    92A      2.137365    93A      2.288235  
      94A      2.293915    95A      2.313288    96A      2.329289  
      97A      2.448563    98A      2.454498    99A      2.469515  
     100A      2.480073   101A      2.560097   102A      2.561401  
     103A      2.578589   104A      2.592276   105A      2.762405  
     106A      2.764541   107A      2.787216   108A      2.801102  
     109A      2.837682   110A      2.843278   111A      2.851569  
     112A      2.860324   113A      2.936374   114A      2.951521  
     115A      2.961703   116A      2.979830  

    Final Occupation by Irrep:
              A 
    DOCC [    18 ]

  @RHF Final Energy:  -158.46579083967495

   => Energetics <=

    Nuclear Repulsion Energy =            120.5800462493728133
    One-Electron Energy =                -450.2634896879408757
    Two-Electron Energy =                 171.2176525988931246
    Total Energy =                       -158.4657908396749519

Computation Completed


Properties will be evaluated at   0.000000,   0.000000,   0.000000 [a0]

Properties computed using the SCF density matrix

  Nuclear Dipole Moment: [e a0]
     X:    -0.0141      Y:    -0.0196      Z:     0.0123

  Electronic Dipole Moment: [e a0]
     X:     0.0174      Y:     0.0219      Z:    -0.0019

  Dipole Moment: [e a0]
     X:     0.0033      Y:     0.0024      Z:     0.0104     Total:     0.0112

  Dipole Moment: [D]
     X:     0.0083      Y:     0.0061      Z:     0.0265     Total:     0.0284


*** tstop() called on ds3 at Tue Apr 28 00:13:13 2020
Module time:
	user time   =       7.11 seconds =       0.12 minutes
	system time =       2.66 seconds =       0.04 minutes
	total time  =         17 seconds =       0.28 minutes
Total time:
	user time   =       7.11 seconds =       0.12 minutes
	system time =       2.66 seconds =       0.04 minutes
	total time  =         17 seconds =       0.28 minutes
                                     G D M A

                                 by Anthony Stone

                           version 2.2.06, 22 June 2011

               Distributed Multipoles from Gaussian wavefunctions


Starting at 0:13:13 on 28 Apr 2020  


Using SCF density matrix from file ./SSI/SSI-013LEU-069LEU-1-dimer.test.4972.fchk


                         Distributed Multipole Analysis

Standard DMA

Positions and radii in angstrom
Multipole moments in atomic units, ea_0^k for rank k

C          x =  0.849067  y =  0.262688  z =  1.431224 angstrom
           Maximum rank =  0   Radius =  0.650 angstrom
                   Q00  =  -0.229969

C          x =  1.819067  y =  0.304688  z =  2.610224 angstrom
           Maximum rank =  0   Radius =  0.650 angstrom
                   Q00  =  -0.242939

H          x =  1.262067  y =  0.817688  z =  0.587224 angstrom
           Maximum rank =  0   Radius =  0.325 angstrom
                   Q00  =   0.080566

H          x =  0.700067  y = -0.774312  z =  1.136224 angstrom
           Maximum rank =  0   Radius =  0.325 angstrom
                   Q00  =   0.077682

H          x = -0.109933  y =  0.697688  z =  1.717224 angstrom
           Maximum rank =  0   Radius =  0.325 angstrom
                   Q00  =   0.077138

H          x =  2.762067  y = -0.105312  z =  2.272224 angstrom
           Maximum rank =  0   Radius =  0.325 angstrom
                   Q00  =   0.078874

H          x =  1.980677  y =  1.346505  z =  2.924068 angstrom
           Maximum rank =  0   Radius =  0.325 angstrom
                   Q00  =   0.079722

H          x =  1.453987  y = -0.322501  z =  3.436875 angstrom
           Maximum rank =  0   Radius =  0.325 angstrom
                   Q00  =   0.080315

C          x = -1.265933  y =  0.437688  z = -1.790776 angstrom
           Maximum rank =  0   Radius =  0.650 angstrom
                   Q00  =  -0.236027

C          x = -1.400933  y = -1.003312  z = -2.251776 angstrom
           Maximum rank =  0   Radius =  0.650 angstrom
                   Q00  =  -0.232487

H          x = -0.325933  y =  0.851688  z = -2.153776 angstrom
           Maximum rank =  0   Radius =  0.325 angstrom
                   Q00  =   0.075635

H          x = -2.088933  y =  1.032688  z = -2.182776 angstrom
           Maximum rank =  0   Radius =  0.325 angstrom
                   Q00  =   0.076526

H          x = -1.280933  y =  0.479688  z = -0.700776 angstrom
           Maximum rank =  0   Radius =  0.325 angstrom
                   Q00  =   0.083527

H          x = -2.311933  y = -1.399312  z = -1.803776 angstrom
           Maximum rank =  0   Radius =  0.325 angstrom
                   Q00  =   0.073853

H          x = -0.538130  y = -1.573020  z = -1.876270 angstrom
           Maximum rank =  0   Radius =  0.325 angstrom
                   Q00  =   0.077795

H          x = -1.518142  y = -1.072343  z = -3.343333 angstrom
           Maximum rank =  0   Radius =  0.325 angstrom
                   Q00  =   0.079790

Total multipoles referred to origin at
           x =   0.000000,  y =    0.000000,  z =    0.000000 angstrom
                   Q00  =  -0.000000

Finished at 0:13:13 on 28 Apr 2020  

  DMA results are available in the Python driver through the
	  variable('DMA DISTRIBUTED MULTIPOLES')
  and
	  variable('DMA TOTAL MULTIPOLES')
  commands.


    Psi4 stopped on: Tuesday, 28 April 2020 12:13AM
    Psi4 wall time for execution: 0:00:17.77

*** Psi4 exiting successfully. Buy a developer a beer!
