
    -----------------------------------------------------------------------
          Psi4: An Open-Source Ab Initio Electronic Structure Package
                               Psi4 1.3.2 release

                         Git: Rev {HEAD} ecbda83 


    R. M. Parrish, L. A. Burns, D. G. A. Smith, A. C. Simmonett,
    A. E. DePrince III, E. G. Hohenstein, U. Bozkaya, A. Yu. Sokolov,
    R. Di Remigio, R. M. Richard, J. F. Gonthier, A. M. James,
    H. R. McAlexander, A. Kumar, M. Saitow, X. Wang, B. P. Pritchard,
    P. Verma, H. F. Schaefer III, K. Patkowski, R. A. King, E. F. Valeev,
    F. A. Evangelista, J. M. Turney, T. D. Crawford, and C. D. Sherrill,
    J. Chem. Theory Comput. 13(7) pp 3185--3197 (2017).
    (doi: 10.1021/acs.jctc.7b00174)


                         Additional Contributions by
    P. Kraus, H. Kruse, M. H. Lechner, M. C. Schieber, R. A. Shaw,
    A. Alenaizan, R. Galvelis, Z. L. Glick, S. Lehtola, and J. P. Misiewicz

    -----------------------------------------------------------------------


    Psi4 started on: Monday, 27 April 2020 07:05PM

    Process ID: 3389
    Host:       ds3
    PSIDATADIR: /theoryfs2/ds/metcalf/miniconda2/envs/tf2gpu/share/psi4
    Memory:     500.0 MiB
    Threads:    1
    
  ==> Input File <==

--------------------------------------------------------------------------
import numpy as np
set {scf_type pk
basis cc-pvdz
d_convergence 10
gdma_switch   0
gdma_limit    0
gdma_origin   [ 0.0,  0.0,  0.0 ]
}
molecule test {
    units Angstrom
    -1 1
    --
    -1 1
    C                2.634654108810941     1.991906713131949     0.276864065004000
    C                2.417654108810940     0.550906713131949    -0.080135934996000
    O                3.385654108810940    -0.146093286868051     0.039864065004000
    N                1.193654108810940     0.233906713131949    -0.472135934996000
    H                0.991654108810940    -0.636093286868051    -0.907135934996000
    H                0.433654108810940     0.892906713131949    -0.439135934996000
    H                1.957654108810940     2.248906713131949     1.094864065004000
    H                2.378654108810940     2.609906713131949    -0.586135934996000
    H                3.674544108810940     2.175586713131949     0.584900865004000
    C               -2.350345891189059    -0.415093286868051     1.505864065004000
    C               -2.393345891189059    -0.679093286868051    -0.012135934996000
    O               -1.564345891189060    -0.082093286868051    -0.738135934996000
    O               -3.249345891189059    -1.461093286868051    -0.497135934996000
    H               -3.068345891189060     0.374906713131949     1.740864065004000
    H               -1.361345891189060    -0.058093286868051     1.801864065004000
    H               -2.602165891189060    -1.296463286868051     2.113953065004000

}
e, wfn = energy('scf', return_wfn=True)
gdma(wfn)
dmavals = variable('DMA DISTRIBUTED MULTIPOLES')
charges = np.array(dmavals)
print(charges)
np.save('SSI-001ASN-097GLU-1-dimer.npy', np.array(charges))--------------------------------------------------------------------------

*** tstart() called on ds3
*** at Mon Apr 27 19:05:38 2020

   => Loading Basis Set <=

    Name: CC-PVDZ
    Role: ORBITAL
    Keyword: BASIS
    atoms 1-2, 10-11 entry C          line   138 file /theoryfs2/ds/metcalf/miniconda2/envs/tf2gpu/share/psi4/basis/cc-pvdz.gbs 
    atoms 3, 12-13   entry O          line   198 file /theoryfs2/ds/metcalf/miniconda2/envs/tf2gpu/share/psi4/basis/cc-pvdz.gbs 
    atoms 4          entry N          line   168 file /theoryfs2/ds/metcalf/miniconda2/envs/tf2gpu/share/psi4/basis/cc-pvdz.gbs 
    atoms 5-9, 14-16 entry H          line    22 file /theoryfs2/ds/metcalf/miniconda2/envs/tf2gpu/share/psi4/basis/cc-pvdz.gbs 


         ---------------------------------------------------------
                                   SCF
               by Justin Turney, Rob Parrish, Andy Simmonett
                          and Daniel G. A. Smith
                              RHF Reference
                        1 Threads,    500 MiB Core
         ---------------------------------------------------------

  ==> Geometry <==

    Molecular point group: c1
    Full point group: C1

    Geometry (in Angstrom), charge = -1, multiplicity = 1:

       Center              X                  Y                   Z               Mass       
    ------------   -----------------  -----------------  -----------------  -----------------
         C            2.634654108811     1.991906713132     0.276864065004    12.000000000000
         C            2.417654108811     0.550906713132    -0.080135934996    12.000000000000
         O            3.385654108811    -0.146093286868     0.039864065004    15.994914619570
         N            1.193654108811     0.233906713132    -0.472135934996    14.003074004430
         H            0.991654108811    -0.636093286868    -0.907135934996     1.007825032230
         H            0.433654108811     0.892906713132    -0.439135934996     1.007825032230
         H            1.957654108811     2.248906713132     1.094864065004     1.007825032230
         H            2.378654108811     2.609906713132    -0.586135934996     1.007825032230
         H            3.674544108811     2.175586713132     0.584900865004     1.007825032230
         C           -2.350345891189    -0.415093286868     1.505864065004    12.000000000000
         C           -2.393345891189    -0.679093286868    -0.012135934996    12.000000000000
         O           -1.564345891189    -0.082093286868    -0.738135934996    15.994914619570
         O           -3.249345891189    -1.461093286868    -0.497135934996    15.994914619570
         H           -3.068345891189     0.374906713132     1.740864065004     1.007825032230
         H           -1.361345891189    -0.058093286868     1.801864065004     1.007825032230
         H           -2.602165891189    -1.296463286868     2.113953065004     1.007825032230

  Running in c1 symmetry.

  Rotational constants: A =      0.15218  B =      0.01991  C =      0.01936 [cm^-1]
  Rotational constants: A =   4562.18332  B =    596.97176  C =    580.33689 [MHz]
  Nuclear repulsion =  344.319454278227170

  Charge       = -1
  Multiplicity = 1
  Electrons    = 64
  Nalpha       = 32
  Nbeta        = 32

  ==> Algorithm <==

  SCF Algorithm Type is PK.
  DIIS enabled.
  MOM disabled.
  Fractional occupation disabled.
  Guess Type is SAD.
  Energy threshold   = 1.00e-06
  Density threshold  = 1.00e-10
  Integral threshold = 0.00e+00

  ==> Primary Basis <==

  Basis Set: CC-PVDZ
    Blend: CC-PVDZ
    Number of shells: 72
    Number of basis function: 152
    Number of Cartesian functions: 160
    Spherical Harmonics?: true
    Max angular momentum: 2

  ==> Pre-Iterations <==

   -------------------------------------------------------
    Irrep   Nso     Nmo     Nalpha   Nbeta   Ndocc  Nsocc
   -------------------------------------------------------
     A        152     152       0       0       0       0
   -------------------------------------------------------
    Total     152     152      32      32      32       0
   -------------------------------------------------------

  ==> Integral Setup <==

  Using integral reordering PK algorithm.
  Sizing the integral batches needed.
  Building batch lookup table.
   Calculation information:
      Number of atoms:                  16
      Number of AO shells:              72
      Number of primitives:            216
      Number of atomic orbitals:       160
      Number of basis functions:       152

      Integral cutoff                 1.00e-12
      Number of threads:                 1

	Batch   1 pq = [       0,    9405] index = [             0,44231715] size =     44231715
	Batch   2 pq = [    9405,   11628] index = [      44231715,67611006] size =     23379291
  Task number: 7
  Buffer size: 11059200
  Buffer per thread: 2
  We computed 2577685 shell quartets total.
  Whereas there are 3454506 unique shell quartets.

  ==> DiskJK: Disk-Based J/K Matrices <==

    J tasked:                  Yes
    K tasked:                  Yes
    wK tasked:                  No
    Memory [MiB]:              375
    Schwarz Cutoff:          1E-12

    OpenMP threads:              1

  Minimum eigenvalue in the overlap matrix is 4.5088885707E-03.
  Using Symmetric Orthogonalization.

  SCF Guess: Superposition of Atomic Densities via on-the-fly atomic UHF.

  ==> Iterations <==

                        Total Energy        Delta E     RMS |[F,P]|

   @RHF iter SAD:  -433.51057586288192   -4.33511e+02   0.00000e+00 
   @RHF iter   1:  -434.93324462611548   -1.42267e+00   5.45039e-03 DIIS
   @RHF iter   2:  -435.16625510541377   -2.33010e-01   3.19279e-03 DIIS
   @RHF iter   3:  -435.24820503078223   -8.19499e-02   4.73614e-04 DIIS
   @RHF iter   4:  -435.25141180685301   -3.20678e-03   1.80601e-04 DIIS
   @RHF iter   5:  -435.25194149821795   -5.29691e-04   3.46352e-05 DIIS
   @RHF iter   6:  -435.25196551187440   -2.40137e-05   1.89299e-05 DIIS
   @RHF iter   7:  -435.25197101067977   -5.49881e-06   5.03324e-06 DIIS
   @RHF iter   8:  -435.25197188633496   -8.75655e-07   2.21966e-06 DIIS
   @RHF iter   9:  -435.25197202088140   -1.34546e-07   8.67354e-07 DIIS
   @RHF iter  10:  -435.25197204079421   -1.99128e-08   2.15454e-07 DIIS
   @RHF iter  11:  -435.25197204177596   -9.81743e-10   9.37418e-08 DIIS
   @RHF iter  12:  -435.25197204190056   -1.24601e-10   1.86111e-08 DIIS
   @RHF iter  13:  -435.25197204191090   -1.03455e-11   5.59605e-09 DIIS
   @RHF iter  14:  -435.25197204191193   -1.02318e-12   2.18923e-09 DIIS
   @RHF iter  15:  -435.25197204191164    2.84217e-13   8.13979e-10 DIIS
   @RHF iter  16:  -435.25197204191267   -1.02318e-12   3.32491e-10 DIIS
   @RHF iter  17:  -435.25197204191085    1.81899e-12   1.45746e-10 DIIS
   @RHF iter  18:  -435.25197204190948    1.36424e-12   3.57839e-11 DIIS
  Energy and wave function converged.


  ==> Post-Iterations <==

    Orbital Energies [Eh]
    ---------------------

    Doubly Occupied:                                                      

       1A    -20.387734     2A    -20.281038     3A    -20.271887  
       4A    -15.443287     5A    -11.221854     6A    -11.136259  
       7A    -11.126151     8A    -11.067119     9A     -1.267135  
      10A     -1.164333    11A     -1.089215    12A     -1.048569  
      13A     -0.884525    14A     -0.808026    15A     -0.672207  
      16A     -0.585387    17A     -0.547130    18A     -0.516699  
      19A     -0.503846    20A     -0.460201    21A     -0.446817  
      22A     -0.422075    23A     -0.419917    24A     -0.418462  
      25A     -0.403126    26A     -0.357509    27A     -0.320833  
      28A     -0.290201    29A     -0.279990    30A     -0.201925  
      31A     -0.186159    32A     -0.177189  

    Virtual:                                                              

      33A      0.287131    34A      0.316672    35A      0.342415  
      36A      0.350992    37A      0.370106    38A      0.385829  
      39A      0.388508    40A      0.404794    41A      0.423583  
      42A      0.468460    43A      0.503091    44A      0.559260  
      45A      0.574100    46A      0.673491    47A      0.678783  
      48A      0.694687    49A      0.741924    50A      0.780056  
      51A      0.804317    52A      0.819249    53A      0.846972  
      54A      0.848401    55A      0.875649    56A      0.918199  
      57A      0.944734    58A      0.953821    59A      0.966277  
      60A      0.971864    61A      0.999250    62A      1.020432  
      63A      1.025387    64A      1.032151    65A      1.049669  
      66A      1.063226    67A      1.071440    68A      1.099570  
      69A      1.146386    70A      1.171650    71A      1.202727  
      72A      1.216429    73A      1.219067    74A      1.245488  
      75A      1.329801    76A      1.333499    77A      1.413720  
      78A      1.437572    79A      1.464295    80A      1.474205  
      81A      1.480456    82A      1.533002    83A      1.549688  
      84A      1.561456    85A      1.577665    86A      1.586157  
      87A      1.613510    88A      1.636763    89A      1.674373  
      90A      1.726553    91A      1.748508    92A      1.764878  
      93A      1.783152    94A      1.816866    95A      1.827149  
      96A      1.832322    97A      1.968925    98A      1.989797  
      99A      1.999473   100A      2.038605   101A      2.052461  
     102A      2.060365   103A      2.068966   104A      2.072912  
     105A      2.092294   106A      2.121200   107A      2.131787  
     108A      2.184828   109A      2.204412   110A      2.219052  
     111A      2.230927   112A      2.301720   113A      2.334435  
     114A      2.361558   115A      2.379757   116A      2.395924  
     117A      2.419275   118A      2.522399   119A      2.545695  
     120A      2.558295   121A      2.639581   122A      2.654610  
     123A      2.686122   124A      2.718937   125A      2.734402  
     126A      2.742673   127A      2.772099   128A      2.848464  
     129A      2.849433   130A      2.896780   131A      2.902090  
     132A      2.953054   133A      2.969357   134A      3.018080  
     135A      3.162554   136A      3.223584   137A      3.257368  
     138A      3.261836   139A      3.267242   140A      3.277371  
     141A      3.341294   142A      3.400264   143A      3.620298  
     144A      3.665460   145A      3.737163   146A      3.789581  
     147A      3.802158   148A      3.992348   149A      4.037920  
     150A      4.040730   151A      4.076700   152A      4.169906  

    Final Occupation by Irrep:
              A 
    DOCC [    32 ]

  @RHF Final Energy:  -435.25197204190948

   => Energetics <=

    Nuclear Repulsion Energy =            344.3194542782271697
    One-Electron Energy =               -1290.3292439506947176
    Two-Electron Energy =                 510.7578176305581223
    Total Energy =                       -435.2519720419094824

Computation Completed


Properties will be evaluated at   0.000000,   0.000000,   0.000000 [a0]

Properties computed using the SCF density matrix

  Nuclear Dipole Moment: [e a0]
     X:     2.2436      Y:     5.9081      Z:     5.0617

  Electronic Dipole Moment: [e a0]
     X:     0.1036      Y:    -3.9202      Z:    -4.0194

  Dipole Moment: [e a0]
     X:     2.3473      Y:     1.9879      Z:     1.0424     Total:     3.2478

  Dipole Moment: [D]
     X:     5.9662      Y:     5.0528      Z:     2.6495     Total:     8.2550


*** tstop() called on ds3 at Mon Apr 27 19:06:08 2020
Module time:
	user time   =      20.62 seconds =       0.34 minutes
	system time =      10.32 seconds =       0.17 minutes
	total time  =         30 seconds =       0.50 minutes
Total time:
	user time   =      20.62 seconds =       0.34 minutes
	system time =      10.32 seconds =       0.17 minutes
	total time  =         30 seconds =       0.50 minutes
                                     G D M A

                                 by Anthony Stone

                           version 2.2.06, 22 June 2011

               Distributed Multipoles from Gaussian wavefunctions


Starting at 19:6:8 on 27 Apr 2020   


Using SCF density matrix from file ./SSI/SSI-001ASN-097GLU-1-dimer.test.3389.fchk


                         Distributed Multipole Analysis

Standard DMA

Positions and radii in angstrom
Multipole moments in atomic units, ea_0^k for rank k

C          x =  2.634654  y =  1.991907  z =  0.276864 angstrom
           Maximum rank =  0   Radius =  0.650 angstrom
                   Q00  =  -0.270849

C          x =  2.417654  y =  0.550907  z = -0.080136 angstrom
           Maximum rank =  0   Radius =  0.650 angstrom
                   Q00  =   0.880839

O          x =  3.385654  y = -0.146093  z =  0.039864 angstrom
           Maximum rank =  0   Radius =  0.650 angstrom
                   Q00  =  -0.814921

N          x =  1.193654  y =  0.233907  z = -0.472136 angstrom
           Maximum rank =  0   Radius =  0.650 angstrom
                   Q00  =  -0.556674

H          x =  0.991654  y = -0.636093  z = -0.907136 angstrom
           Maximum rank =  0   Radius =  0.325 angstrom
                   Q00  =   0.222053

H          x =  0.433654  y =  0.892907  z = -0.439136 angstrom
           Maximum rank =  0   Radius =  0.325 angstrom
                   Q00  =   0.237808

H          x =  1.957654  y =  2.248907  z =  1.094864 angstrom
           Maximum rank =  0   Radius =  0.325 angstrom
                   Q00  =   0.094684

H          x =  2.378654  y =  2.609907  z = -0.586136 angstrom
           Maximum rank =  0   Radius =  0.325 angstrom
                   Q00  =   0.089263

H          x =  3.674544  y =  2.175587  z =  0.584901 angstrom
           Maximum rank =  0   Radius =  0.325 angstrom
                   Q00  =   0.097368

C          x = -2.350346  y = -0.415093  z =  1.505864 angstrom
           Maximum rank =  0   Radius =  0.650 angstrom
                   Q00  =  -0.290918

C          x = -2.393346  y = -0.679093  z = -0.012136 angstrom
           Maximum rank =  0   Radius =  0.650 angstrom
                   Q00  =   0.951391

O          x = -1.564346  y = -0.082093  z = -0.738136 angstrom
           Maximum rank =  0   Radius =  0.650 angstrom
                   Q00  =  -0.933061

O          x = -3.249346  y = -1.461093  z = -0.497136 angstrom
           Maximum rank =  0   Radius =  0.650 angstrom
                   Q00  =  -0.910673

H          x = -3.068346  y =  0.374907  z =  1.740864 angstrom
           Maximum rank =  0   Radius =  0.325 angstrom
                   Q00  =   0.081092

H          x = -1.361346  y = -0.058093  z =  1.801864 angstrom
           Maximum rank =  0   Radius =  0.325 angstrom
                   Q00  =   0.057280

H          x = -2.602166  y = -1.296463  z =  2.113953 angstrom
           Maximum rank =  0   Radius =  0.325 angstrom
                   Q00  =   0.065316

Total multipoles referred to origin at
           x =   0.000000,  y =    0.000000,  z =    0.000000 angstrom
                   Q00  =  -1.000000

Finished at 19:6:8 on 27 Apr 2020   

  DMA results are available in the Python driver through the
	  variable('DMA DISTRIBUTED MULTIPOLES')
  and
	  variable('DMA TOTAL MULTIPOLES')
  commands.


    Psi4 stopped on: Monday, 27 April 2020 07:06PM
    Psi4 wall time for execution: 0:00:30.93

*** Psi4 exiting successfully. Buy a developer a beer!
