
    -----------------------------------------------------------------------
          Psi4: An Open-Source Ab Initio Electronic Structure Package
                               Psi4 1.3.2 release

                         Git: Rev {HEAD} ecbda83 


    R. M. Parrish, L. A. Burns, D. G. A. Smith, A. C. Simmonett,
    A. E. DePrince III, E. G. Hohenstein, U. Bozkaya, A. Yu. Sokolov,
    R. Di Remigio, R. M. Richard, J. F. Gonthier, A. M. James,
    H. R. McAlexander, A. Kumar, M. Saitow, X. Wang, B. P. Pritchard,
    P. Verma, H. F. Schaefer III, K. Patkowski, R. A. King, E. F. Valeev,
    F. A. Evangelista, J. M. Turney, T. D. Crawford, and C. D. Sherrill,
    J. Chem. Theory Comput. 13(7) pp 3185--3197 (2017).
    (doi: 10.1021/acs.jctc.7b00174)


                         Additional Contributions by
    P. Kraus, H. Kruse, M. H. Lechner, M. C. Schieber, R. A. Shaw,
    A. Alenaizan, R. Galvelis, Z. L. Glick, S. Lehtola, and J. P. Misiewicz

    -----------------------------------------------------------------------


    Psi4 started on: Tuesday, 28 April 2020 08:44PM

    Process ID: 26396
    Host:       ds3
    PSIDATADIR: /theoryfs2/ds/metcalf/miniconda2/envs/tf2gpu/share/psi4
    Memory:     500.0 MiB
    Threads:    1
    
  ==> Input File <==

--------------------------------------------------------------------------
import numpy as np
set {scf_type pk
basis cc-pvdz
d_convergence 10
gdma_switch   0
gdma_limit    0
gdma_origin   [ 0.0,  0.0,  0.0 ]
}
molecule test {
    units Angstrom
    0 1
    --
    0 1
    C                0.377502688965367     1.281068279860425     3.352877297130770
    C                0.263502688965367     1.155068279860425    -0.929122702869230
    C               -0.870497311034633     1.509068279860425    -0.212122702869230
    C                1.444502688965367     0.835068279860425    -0.266122702869230
    C               -0.822497311034633     1.546068279860425     1.170877297130770
    C                1.481502688965367     0.868068279860425     1.123877297130770
    C                0.345502688965367     1.219068279860425     1.850877297130770
    O                0.197502688965367     1.126068279860425    -2.283122702869230
    H               -1.779497311034633     1.772068279860425    -0.731122702869230
    H               -0.657497311034633     1.415068279860425    -2.604122702869230
    H                2.317502688965367     0.559068279860425    -0.838122702869230
    H               -1.687497311034633     1.851068279860425     1.733877297130770
    H                2.397502688965367     0.616068279860425     1.640877297130770
    H                1.236502688965367     0.728068279860425     3.736877297130770
    H               -0.528497311034633     0.799068279860425     3.723877297130770
    H                0.412182688965367     2.320728279860425     3.710509297130770
    C               -0.660497311034633    -2.394931720139575    -0.974122702869230
    C               -1.262497311034633    -2.926931720139575    -2.282122702869230
    C               -0.219497311034633    -3.439931720139575     0.056877297130770
    H                0.202502688965367    -1.774931720139575    -1.219122702869230
    H               -1.400497311034633    -1.743931720139575    -0.504122702869230
    H               -0.531497311034633    -3.573931720139575    -2.770122702869230
    H               -1.051497311034633    -4.102931720139575     0.289877297130770
    H               -1.509147311034633    -2.088161720139575    -2.949672702869230
    H               -2.158907311034633    -3.526711720139575    -2.066002702869230
    H                0.612812688965367    -4.040121720139575    -0.339392702869230
    H                0.073872688965367    -2.934651720139575     0.988877297130770

}
e, wfn = energy('scf', return_wfn=True)
gdma(wfn)
dmavals = variable('DMA DISTRIBUTED MULTIPOLES')
charges = np.array(dmavals)
print(charges)
np.save('SSI-013TYR-075LEU-1-dimer.npy', np.array(charges))--------------------------------------------------------------------------

*** tstart() called on ds3
*** at Tue Apr 28 20:44:52 2020

   => Loading Basis Set <=

    Name: CC-PVDZ
    Role: ORBITAL
    Keyword: BASIS
    atoms 1-7, 17-19  entry C          line   138 file /theoryfs2/ds/metcalf/miniconda2/envs/tf2gpu/share/psi4/basis/cc-pvdz.gbs 
    atoms 8           entry O          line   198 file /theoryfs2/ds/metcalf/miniconda2/envs/tf2gpu/share/psi4/basis/cc-pvdz.gbs 
    atoms 9-16, 20-27 entry H          line    22 file /theoryfs2/ds/metcalf/miniconda2/envs/tf2gpu/share/psi4/basis/cc-pvdz.gbs 


         ---------------------------------------------------------
                                   SCF
               by Justin Turney, Rob Parrish, Andy Simmonett
                          and Daniel G. A. Smith
                              RHF Reference
                        1 Threads,    500 MiB Core
         ---------------------------------------------------------

  ==> Geometry <==

    Molecular point group: c1
    Full point group: C1

    Geometry (in Angstrom), charge = 0, multiplicity = 1:

       Center              X                  Y                   Z               Mass       
    ------------   -----------------  -----------------  -----------------  -----------------
         C            0.377502688965     1.281068279860     3.352877297131    12.000000000000
         C            0.263502688965     1.155068279860    -0.929122702869    12.000000000000
         C           -0.870497311035     1.509068279860    -0.212122702869    12.000000000000
         C            1.444502688965     0.835068279860    -0.266122702869    12.000000000000
         C           -0.822497311035     1.546068279860     1.170877297131    12.000000000000
         C            1.481502688965     0.868068279860     1.123877297131    12.000000000000
         C            0.345502688965     1.219068279860     1.850877297131    12.000000000000
         O            0.197502688965     1.126068279860    -2.283122702869    15.994914619570
         H           -1.779497311035     1.772068279860    -0.731122702869     1.007825032230
         H           -0.657497311035     1.415068279860    -2.604122702869     1.007825032230
         H            2.317502688965     0.559068279860    -0.838122702869     1.007825032230
         H           -1.687497311035     1.851068279860     1.733877297131     1.007825032230
         H            2.397502688965     0.616068279860     1.640877297131     1.007825032230
         H            1.236502688965     0.728068279860     3.736877297131     1.007825032230
         H           -0.528497311035     0.799068279860     3.723877297131     1.007825032230
         H            0.412182688965     2.320728279860     3.710509297131     1.007825032230
         C           -0.660497311035    -2.394931720140    -0.974122702869    12.000000000000
         C           -1.262497311035    -2.926931720140    -2.282122702869    12.000000000000
         C           -0.219497311035    -3.439931720140     0.056877297131    12.000000000000
         H            0.202502688965    -1.774931720140    -1.219122702869     1.007825032230
         H           -1.400497311035    -1.743931720140    -0.504122702869     1.007825032230
         H           -0.531497311035    -3.573931720140    -2.770122702869     1.007825032230
         H           -1.051497311035    -4.102931720140     0.289877297131     1.007825032230
         H           -1.509147311035    -2.088161720140    -2.949672702869     1.007825032230
         H           -2.158907311035    -3.526711720140    -2.066002702869     1.007825032230
         H            0.612812688965    -4.040121720140    -0.339392702869     1.007825032230
         H            0.073872688965    -2.934651720140     0.988877297131     1.007825032230

  Running in c1 symmetry.

  Rotational constants: A =      0.04150  B =      0.02020  C =      0.01623 [cm^-1]
  Rotational constants: A =   1244.24403  B =    605.45140  C =    486.61224 [MHz]
  Nuclear repulsion =  589.008576172072253

  Charge       = 0
  Multiplicity = 1
  Electrons    = 84
  Nalpha       = 42
  Nbeta        = 42

  ==> Algorithm <==

  SCF Algorithm Type is PK.
  DIIS enabled.
  MOM disabled.
  Fractional occupation disabled.
  Guess Type is SAD.
  Energy threshold   = 1.00e-06
  Density threshold  = 1.00e-10
  Integral threshold = 0.00e+00

  ==> Primary Basis <==

  Basis Set: CC-PVDZ
    Blend: CC-PVDZ
    Number of shells: 114
    Number of basis function: 234
    Number of Cartesian functions: 245
    Spherical Harmonics?: true
    Max angular momentum: 2

  ==> Pre-Iterations <==

   -------------------------------------------------------
    Irrep   Nso     Nmo     Nalpha   Nbeta   Ndocc  Nsocc
   -------------------------------------------------------
     A        234     234       0       0       0       0
   -------------------------------------------------------
    Total     234     234      42      42      42       0
   -------------------------------------------------------

  ==> Integral Setup <==

  Using integral reordering PK algorithm.
  Sizing the integral batches needed.
  Building batch lookup table.
   Calculation information:
      Number of atoms:                  27
      Number of AO shells:             114
      Number of primitives:            322
      Number of atomic orbitals:       245
      Number of basis functions:       234

      Integral cutoff                 1.00e-12
      Number of threads:                 1

	Batch   1 pq = [       0,    9405] index = [             0,44231715] size =     44231715
	Batch   2 pq = [    9405,   13301] index = [      44231715,88464951] size =     44233236
	Batch   3 pq = [   13301,   16290] index = [      88464951,132690195] size =     44225244
	Batch   4 pq = [   16290,   18810] index = [     132690195,176917455] size =     44227260
	Batch   5 pq = [   18810,   21030] index = [     176917455,221140965] size =     44223510
	Batch   6 pq = [   21030,   23037] index = [     221140965,265363203] size =     44222238
	Batch   7 pq = [   23037,   24883] index = [     265363203,309594286] size =     44231083
	Batch   8 pq = [   24883,   26601] index = [     309594286,353819901] size =     44225615
	Batch   9 pq = [   26601,   27495] index = [     353819901,378001260] size =     24181359
  Task number: 35
  Buffer size: 11059200
  Buffer per thread: 2
  We computed 20453682 shell quartets total.
  Whereas there are 21487290 unique shell quartets.

  ==> DiskJK: Disk-Based J/K Matrices <==

    J tasked:                  Yes
    K tasked:                  Yes
    wK tasked:                  No
    Memory [MiB]:              375
    Schwarz Cutoff:          1E-12

    OpenMP threads:              1

  Minimum eigenvalue in the overlap matrix is 3.1635588172E-04.
  Using Symmetric Orthogonalization.

  SCF Guess: Superposition of Atomic Densities via on-the-fly atomic UHF.

  ==> Iterations <==

                        Total Energy        Delta E     RMS |[F,P]|

   @RHF iter SAD:  -461.71904686098605   -4.61719e+02   0.00000e+00 
   @RHF iter   1:  -462.60632838262626   -8.87282e-01   2.82546e-03 DIIS
   @RHF iter   2:  -462.85018135008067   -2.43853e-01   1.19987e-03 DIIS
   @RHF iter   3:  -462.89004643784153   -3.98651e-02   2.68663e-04 DIIS
   @RHF iter   4:  -462.89328420261432   -3.23776e-03   1.06455e-04 DIIS
   @RHF iter   5:  -462.89364566112761   -3.61459e-04   2.01297e-05 DIIS
   @RHF iter   6:  -462.89366475240416   -1.90913e-05   6.37703e-06 DIIS
   @RHF iter   7:  -462.89366668005624   -1.92765e-06   1.81705e-06 DIIS
   @RHF iter   8:  -462.89366690753536   -2.27479e-07   6.87547e-07 DIIS
   @RHF iter   9:  -462.89366694218535   -3.46500e-08   2.89491e-07 DIIS
   @RHF iter  10:  -462.89366694900173   -6.81638e-09   1.18883e-07 DIIS
   @RHF iter  11:  -462.89366695108714   -2.08541e-09   5.24363e-08 DIIS
   @RHF iter  12:  -462.89366695152273   -4.35591e-10   2.53232e-08 DIIS
   @RHF iter  13:  -462.89366695158901   -6.62794e-11   7.80213e-09 DIIS
   @RHF iter  14:  -462.89366695159731   -8.29914e-12   1.86733e-09 DIIS
   @RHF iter  15:  -462.89366695159219    5.11591e-12   6.03531e-10 DIIS
   @RHF iter  16:  -462.89366695159202    1.70530e-13   1.72662e-10 DIIS
   @RHF iter  17:  -462.89366695159492   -2.89901e-12   6.24098e-11 DIIS
  Energy and wave function converged.


  ==> Post-Iterations <==

    Orbital Energies [Eh]
    ---------------------

    Doubly Occupied:                                                      

       1A    -20.583236     2A    -11.298054     3A    -11.238248  
       4A    -11.236906     5A    -11.231777     6A    -11.231537  
       7A    -11.229900     8A    -11.227850     9A    -11.212299  
      10A    -11.210677    11A    -11.209041    12A     -1.404597  
      13A     -1.153097    14A     -1.041352    15A     -1.038363  
      16A     -1.020405    17A     -0.926126    18A     -0.918414  
      19A     -0.846509    20A     -0.803551    21A     -0.785875  
      22A     -0.734627    23A     -0.671316    24A     -0.641953  
      25A     -0.614960    26A     -0.607595    27A     -0.592289  
      28A     -0.589264    29A     -0.582059    30A     -0.571927  
      31A     -0.568574    32A     -0.543288    33A     -0.526958  
      34A     -0.525920    35A     -0.498244    36A     -0.484965  
      37A     -0.469559    38A     -0.466546    39A     -0.457166  
      40A     -0.454727    41A     -0.340541    42A     -0.300258  

    Virtual:                                                              

      43A      0.129145    44A      0.156527    45A      0.167653  
      46A      0.182993    47A      0.196557    48A      0.214175  
      49A      0.219797    50A      0.240275    51A      0.244770  
      52A      0.250329    53A      0.259201    54A      0.266338  
      55A      0.277257    56A      0.280474    57A      0.290058  
      58A      0.300654    59A      0.307730    60A      0.316125  
      61A      0.369489    62A      0.369932    63A      0.379760  
      64A      0.426711    65A      0.441892    66A      0.454200  
      67A      0.485101    68A      0.498129    69A      0.508838  
      70A      0.576407    71A      0.595230    72A      0.610615  
      73A      0.612854    74A      0.617565    75A      0.624740  
      76A      0.637569    77A      0.658393    78A      0.664197  
      79A      0.693323    80A      0.705959    81A      0.727889  
      82A      0.734851    83A      0.750330    84A      0.757715  
      85A      0.774028    86A      0.776108    87A      0.778631  
      88A      0.800741    89A      0.806777    90A      0.821263  
      91A      0.837720    92A      0.845256    93A      0.847365  
      94A      0.878331    95A      0.881987    96A      0.887699  
      97A      0.896737    98A      0.898855    99A      0.904029  
     100A      0.905021   101A      0.907532   102A      0.913682  
     103A      0.919237   104A      0.926235   105A      0.930435  
     106A      0.938645   107A      0.947940   108A      0.960482  
     109A      0.979009   110A      0.982123   111A      0.996144  
     112A      1.018109   113A      1.038254   114A      1.065837  
     115A      1.125292   116A      1.127547   117A      1.134226  
     118A      1.145809   119A      1.173501   120A      1.175765  
     121A      1.208579   122A      1.217227   123A      1.247673  
     124A      1.254264   125A      1.268841   126A      1.289885  
     127A      1.306716   128A      1.310725   129A      1.319577  
     130A      1.355532   131A      1.365450   132A      1.381205  
     133A      1.390493   134A      1.476117   135A      1.482911  
     136A      1.501785   137A      1.509769   138A      1.523945  
     139A      1.535834   140A      1.563575   141A      1.615406  
     142A      1.620131   143A      1.654744   144A      1.680706  
     145A      1.684066   146A      1.688198   147A      1.694557  
     148A      1.701184   149A      1.734768   150A      1.750409  
     151A      1.786249   152A      1.808691   153A      1.812016  
     154A      1.862910   155A      1.875174   156A      1.878428  
     157A      1.888754   158A      1.890424   159A      1.899883  
     160A      1.911355   161A      1.913466   162A      1.924216  
     163A      1.927024   164A      1.928324   165A      1.944501  
     166A      1.959851   167A      1.966568   168A      1.972599  
     169A      1.976479   170A      1.979324   171A      1.995607  
     172A      1.998726   173A      2.002206   174A      2.019823  
     175A      2.035950   176A      2.037900   177A      2.050745  
     178A      2.065232   179A      2.079059   180A      2.087876  
     181A      2.130312   182A      2.137884   183A      2.150059  
     184A      2.168537   185A      2.174491   186A      2.203036  
     187A      2.225891   188A      2.260061   189A      2.276131  
     190A      2.284742   191A      2.295149   192A      2.302804  
     193A      2.332479   194A      2.338208   195A      2.355803  
     196A      2.402068   197A      2.414243   198A      2.469564  
     199A      2.475091   200A      2.496736   201A      2.500256  
     202A      2.532956   203A      2.538181   204A      2.581133  
     205A      2.608191   206A      2.612975   207A      2.620414  
     208A      2.633310   209A      2.660783   210A      2.753292  
     211A      2.754941   212A      2.760036   213A      2.772530  
     214A      2.783300   215A      2.794851   216A      2.808629  
     217A      2.812297   218A      2.837513   219A      2.899982  
     220A      2.932413   221A      2.958845   222A      2.972187  
     223A      2.982720   224A      3.010593   225A      3.084150  
     226A      3.097670   227A      3.124292   228A      3.258476  
     229A      3.292853   230A      3.352710   231A      3.593786  
     232A      3.683568   233A      3.997063   234A      4.199394  

    Final Occupation by Irrep:
              A 
    DOCC [    42 ]

  @RHF Final Energy:  -462.89366695159492

   => Energetics <=

    Nuclear Repulsion Energy =            589.0085761720722530
    One-Electron Energy =               -1795.6233889779480251
    Two-Electron Energy =                 743.7211458542808487
    Total Energy =                       -462.8936669515949234

Computation Completed


Properties will be evaluated at   0.000000,   0.000000,   0.000000 [a0]

Properties computed using the SCF density matrix

  Nuclear Dipole Moment: [e a0]
     X:    -3.7974      Y:   -12.8606      Z:     1.6793

  Electronic Dipole Moment: [e a0]
     X:     3.3369      Y:    13.1747      Z:    -1.4466

  Dipole Moment: [e a0]
     X:    -0.4605      Y:     0.3141      Z:     0.2327     Total:     0.6040

  Dipole Moment: [D]
     X:    -1.1704      Y:     0.7984      Z:     0.5914     Total:     1.5353


*** tstop() called on ds3 at Tue Apr 28 20:48:09 2020
Module time:
	user time   =     145.83 seconds =       2.43 minutes
	system time =      58.17 seconds =       0.97 minutes
	total time  =        197 seconds =       3.28 minutes
Total time:
	user time   =     145.83 seconds =       2.43 minutes
	system time =      58.17 seconds =       0.97 minutes
	total time  =        197 seconds =       3.28 minutes
                                     G D M A

                                 by Anthony Stone

                           version 2.2.06, 22 June 2011

               Distributed Multipoles from Gaussian wavefunctions


Starting at 20:48:9 on 28 Apr 2020  


Using SCF density matrix from file ./SSI/SSI-013TYR-075LEU-1-dimer.test.26396.fchk


                         Distributed Multipole Analysis

Standard DMA

Positions and radii in angstrom
Multipole moments in atomic units, ea_0^k for rank k

C          x =  0.377503  y =  1.281068  z =  3.352877 angstrom
           Maximum rank =  0   Radius =  0.650 angstrom
                   Q00  =  -0.191990

C          x =  0.263503  y =  1.155068  z = -0.929123 angstrom
           Maximum rank =  0   Radius =  0.650 angstrom
                   Q00  =   0.327384

C          x = -0.870497  y =  1.509068  z = -0.212123 angstrom
           Maximum rank =  0   Radius =  0.650 angstrom
                   Q00  =  -0.181832

C          x =  1.444503  y =  0.835068  z = -0.266123 angstrom
           Maximum rank =  0   Radius =  0.650 angstrom
                   Q00  =  -0.123468

C          x = -0.822497  y =  1.546068  z =  1.170877 angstrom
           Maximum rank =  0   Radius =  0.650 angstrom
                   Q00  =   0.025971

C          x =  1.481503  y =  0.868068  z =  1.123877 angstrom
           Maximum rank =  0   Radius =  0.650 angstrom
                   Q00  =  -0.049013

C          x =  0.345503  y =  1.219068  z =  1.850877 angstrom
           Maximum rank =  0   Radius =  0.650 angstrom
                   Q00  =  -0.136758

O          x =  0.197503  y =  1.126068  z = -2.283123 angstrom
           Maximum rank =  0   Radius =  0.650 angstrom
                   Q00  =  -0.638856

H          x = -1.779497  y =  1.772068  z = -0.731123 angstrom
           Maximum rank =  0   Radius =  0.325 angstrom
                   Q00  =   0.069415

H          x = -0.657497  y =  1.415068  z = -2.604123 angstrom
           Maximum rank =  0   Radius =  0.325 angstrom
                   Q00  =   0.405637

H          x =  2.317503  y =  0.559068  z = -0.838123 angstrom
           Maximum rank =  0   Radius =  0.325 angstrom
                   Q00  =   0.080664

H          x = -1.687497  y =  1.851068  z =  1.733877 angstrom
           Maximum rank =  0   Radius =  0.325 angstrom
                   Q00  =   0.065719

H          x =  2.397503  y =  0.616068  z =  1.640877 angstrom
           Maximum rank =  0   Radius =  0.325 angstrom
                   Q00  =   0.064621

H          x =  1.236503  y =  0.728068  z =  3.736877 angstrom
           Maximum rank =  0   Radius =  0.325 angstrom
                   Q00  =   0.097190

H          x = -0.528497  y =  0.799068  z =  3.723877 angstrom
           Maximum rank =  0   Radius =  0.325 angstrom
                   Q00  =   0.093795

H          x =  0.412183  y =  2.320728  z =  3.710509 angstrom
           Maximum rank =  0   Radius =  0.325 angstrom
                   Q00  =   0.098094

C          x = -0.660497  y = -2.394932  z = -0.974123 angstrom
           Maximum rank =  0   Radius =  0.650 angstrom
                   Q00  =  -0.073454

C          x = -1.262497  y = -2.926932  z = -2.282123 angstrom
           Maximum rank =  0   Radius =  0.650 angstrom
                   Q00  =  -0.245617

C          x = -0.219497  y = -3.439932  z =  0.056877 angstrom
           Maximum rank =  0   Radius =  0.650 angstrom
                   Q00  =  -0.244611

H          x =  0.202503  y = -1.774932  z = -1.219123 angstrom
           Maximum rank =  0   Radius =  0.325 angstrom
                   Q00  =   0.052487

H          x = -1.400497  y = -1.743932  z = -0.504123 angstrom
           Maximum rank =  0   Radius =  0.325 angstrom
                   Q00  =   0.042665

H          x = -0.531497  y = -3.573932  z = -2.770123 angstrom
           Maximum rank =  0   Radius =  0.325 angstrom
                   Q00  =   0.075075

H          x = -1.051497  y = -4.102932  z =  0.289877 angstrom
           Maximum rank =  0   Radius =  0.325 angstrom
                   Q00  =   0.072303

H          x = -1.509147  y = -2.088162  z = -2.949673 angstrom
           Maximum rank =  0   Radius =  0.325 angstrom
                   Q00  =   0.080919

H          x = -2.158907  y = -3.526712  z = -2.066003 angstrom
           Maximum rank =  0   Radius =  0.325 angstrom
                   Q00  =   0.072372

H          x =  0.612813  y = -4.040122  z = -0.339393 angstrom
           Maximum rank =  0   Radius =  0.325 angstrom
                   Q00  =   0.074157

H          x =  0.073873  y = -2.934652  z =  0.988877 angstrom
           Maximum rank =  0   Radius =  0.325 angstrom
                   Q00  =   0.087131

Total multipoles referred to origin at
           x =   0.000000,  y =    0.000000,  z =    0.000000 angstrom
                   Q00  =  -0.000000

Finished at 20:48:9 on 28 Apr 2020  

  DMA results are available in the Python driver through the
	  variable('DMA DISTRIBUTED MULTIPOLES')
  and
	  variable('DMA TOTAL MULTIPOLES')
  commands.


    Psi4 stopped on: Tuesday, 28 April 2020 08:48PM
    Psi4 wall time for execution: 0:03:17.12

*** Psi4 exiting successfully. Buy a developer a beer!
