
    -----------------------------------------------------------------------
          Psi4: An Open-Source Ab Initio Electronic Structure Package
                               Psi4 1.3.2 release

                         Git: Rev {HEAD} ecbda83 


    R. M. Parrish, L. A. Burns, D. G. A. Smith, A. C. Simmonett,
    A. E. DePrince III, E. G. Hohenstein, U. Bozkaya, A. Yu. Sokolov,
    R. Di Remigio, R. M. Richard, J. F. Gonthier, A. M. James,
    H. R. McAlexander, A. Kumar, M. Saitow, X. Wang, B. P. Pritchard,
    P. Verma, H. F. Schaefer III, K. Patkowski, R. A. King, E. F. Valeev,
    F. A. Evangelista, J. M. Turney, T. D. Crawford, and C. D. Sherrill,
    J. Chem. Theory Comput. 13(7) pp 3185--3197 (2017).
    (doi: 10.1021/acs.jctc.7b00174)


                         Additional Contributions by
    P. Kraus, H. Kruse, M. H. Lechner, M. C. Schieber, R. A. Shaw,
    A. Alenaizan, R. Galvelis, Z. L. Glick, S. Lehtola, and J. P. Misiewicz

    -----------------------------------------------------------------------


    Psi4 started on: Tuesday, 28 April 2020 03:57AM

    Process ID: 27055
    Host:       ds3
    PSIDATADIR: /theoryfs2/ds/metcalf/miniconda2/envs/tf2gpu/share/psi4
    Memory:     500.0 MiB
    Threads:    1
    
  ==> Input File <==

--------------------------------------------------------------------------
import numpy as np
set {scf_type pk
basis cc-pvdz
d_convergence 10
gdma_switch   0
gdma_limit    0
gdma_origin   [ 0.0,  0.0,  0.0 ]
}
molecule test {
    units Angstrom
    0 1
    --
    0 1
    C               -1.238656181731705    -0.711769960796070     1.039060684411106
    C               -1.057656181731705    -1.051769960796070    -0.424939315588894
    O               -1.809656181731705    -1.841769960796070    -0.994939315588894
    N               -0.046656181731705    -0.460769960796070    -1.041939315588894
    H                0.135343818268295    -0.690769960796070    -2.004939315588894
    H                0.578343818268295     0.150230039203930    -0.521939315588894
    H               -0.702656181731705     0.204230039203930     1.277060684411106
    H               -0.782656181731705    -1.518769960796070     1.612060684411106
    H               -2.295326181731705    -0.591089960796070     1.319960684411106
    C                2.098343818268295     2.557230039203930     0.658060684411106
    O                1.667343818268295     1.201230039203930     0.628060684411106
    H                1.684343818268295     0.855230039203930     1.544060684411106
    H                2.326343818268295     2.859230039203930    -0.364939315588894
    H                1.297268818268295     3.205210039203930     1.043260684411106
    H                3.023029818268296     2.644100039203930     1.247460684411106

}
e, wfn = energy('scf', return_wfn=True)
gdma(wfn)
dmavals = variable('DMA DISTRIBUTED MULTIPOLES')
charges = np.array(dmavals)
print(charges)
np.save('SSI-044ASN-048THR-2-dimer.npy', np.array(charges))--------------------------------------------------------------------------

*** tstart() called on ds3
*** at Tue Apr 28 03:57:05 2020

   => Loading Basis Set <=

    Name: CC-PVDZ
    Role: ORBITAL
    Keyword: BASIS
    atoms 1-2, 10    entry C          line   138 file /theoryfs2/ds/metcalf/miniconda2/envs/tf2gpu/share/psi4/basis/cc-pvdz.gbs 
    atoms 3, 11      entry O          line   198 file /theoryfs2/ds/metcalf/miniconda2/envs/tf2gpu/share/psi4/basis/cc-pvdz.gbs 
    atoms 4          entry N          line   168 file /theoryfs2/ds/metcalf/miniconda2/envs/tf2gpu/share/psi4/basis/cc-pvdz.gbs 
    atoms 5-9, 12-15 entry H          line    22 file /theoryfs2/ds/metcalf/miniconda2/envs/tf2gpu/share/psi4/basis/cc-pvdz.gbs 


         ---------------------------------------------------------
                                   SCF
               by Justin Turney, Rob Parrish, Andy Simmonett
                          and Daniel G. A. Smith
                              RHF Reference
                        1 Threads,    500 MiB Core
         ---------------------------------------------------------

  ==> Geometry <==

    Molecular point group: c1
    Full point group: C1

    Geometry (in Angstrom), charge = 0, multiplicity = 1:

       Center              X                  Y                   Z               Mass       
    ------------   -----------------  -----------------  -----------------  -----------------
         C           -1.238656181732    -0.711769960796     1.039060684411    12.000000000000
         C           -1.057656181732    -1.051769960796    -0.424939315589    12.000000000000
         O           -1.809656181732    -1.841769960796    -0.994939315589    15.994914619570
         N           -0.046656181732    -0.460769960796    -1.041939315589    14.003074004430
         H            0.135343818268    -0.690769960796    -2.004939315589     1.007825032230
         H            0.578343818268     0.150230039204    -0.521939315589     1.007825032230
         H           -0.702656181732     0.204230039204     1.277060684411     1.007825032230
         H           -0.782656181732    -1.518769960796     1.612060684411     1.007825032230
         H           -2.295326181732    -0.591089960796     1.319960684411     1.007825032230
         C            2.098343818268     2.557230039204     0.658060684411    12.000000000000
         O            1.667343818268     1.201230039204     0.628060684411    15.994914619570
         H            1.684343818268     0.855230039204     1.544060684411     1.007825032230
         H            2.326343818268     2.859230039204    -0.364939315589     1.007825032230
         H            1.297268818268     3.205210039204     1.043260684411     1.007825032230
         H            3.023029818268     2.644100039204     1.247460684411     1.007825032230

  Running in c1 symmetry.

  Rotational constants: A =      0.27064  B =      0.03882  C =      0.03508 [cm^-1]
  Rotational constants: A =   8113.72511  B =   1163.90108  C =   1051.79328 [MHz]
  Nuclear repulsion =  236.498390963658636

  Charge       = 0
  Multiplicity = 1
  Electrons    = 50
  Nalpha       = 25
  Nbeta        = 25

  ==> Algorithm <==

  SCF Algorithm Type is PK.
  DIIS enabled.
  MOM disabled.
  Fractional occupation disabled.
  Guess Type is SAD.
  Energy threshold   = 1.00e-06
  Density threshold  = 1.00e-10
  Integral threshold = 0.00e+00

  ==> Primary Basis <==

  Basis Set: CC-PVDZ
    Blend: CC-PVDZ
    Number of shells: 63
    Number of basis function: 129
    Number of Cartesian functions: 135
    Spherical Harmonics?: true
    Max angular momentum: 2

  ==> Pre-Iterations <==

   -------------------------------------------------------
    Irrep   Nso     Nmo     Nalpha   Nbeta   Ndocc  Nsocc
   -------------------------------------------------------
     A        129     129       0       0       0       0
   -------------------------------------------------------
    Total     129     129      25      25      25       0
   -------------------------------------------------------

  ==> Integral Setup <==

  Using integral reordering PK algorithm.
  Sizing the integral batches needed.
  Building batch lookup table.
   Calculation information:
      Number of atoms:                  15
      Number of AO shells:              63
      Number of primitives:            177
      Number of atomic orbitals:       135
      Number of basis functions:       129

      Integral cutoff                 1.00e-12
      Number of threads:                 1

	Batch   1 pq = [       0,    8385] index = [             0,35158305] size =     35158305
  Task number: 4
  Buffer size: 11059200
  Buffer per thread: 2
  We computed 1737586 shell quartets total.
  Whereas there are 2033136 unique shell quartets.

  ==> DiskJK: Disk-Based J/K Matrices <==

    J tasked:                  Yes
    K tasked:                  Yes
    wK tasked:                  No
    Memory [MiB]:              375
    Schwarz Cutoff:          1E-12

    OpenMP threads:              1

  Minimum eigenvalue in the overlap matrix is 4.5631321170E-03.
  Using Symmetric Orthogonalization.

  SCF Guess: Superposition of Atomic Densities via on-the-fly atomic UHF.

  ==> Iterations <==

                        Total Energy        Delta E     RMS |[F,P]|

   @RHF iter SAD:  -321.71128408560065   -3.21711e+02   0.00000e+00 
   @RHF iter   1:  -322.84494826661887   -1.13366e+00   4.90563e-03 DIIS
   @RHF iter   2:  -322.99935365347920   -1.54405e-01   2.78466e-03 DIIS
   @RHF iter   3:  -323.04538820900854   -4.60346e-02   5.40152e-04 DIIS
   @RHF iter   4:  -323.04827655126542   -2.88834e-03   2.12856e-04 DIIS
   @RHF iter   5:  -323.04874764655301   -4.71095e-04   4.32205e-05 DIIS
   @RHF iter   6:  -323.04877908491949   -3.14384e-05   2.02796e-05 DIIS
   @RHF iter   7:  -323.04878581269423   -6.72777e-06   7.21047e-06 DIIS
   @RHF iter   8:  -323.04878707954686   -1.26685e-06   2.52804e-06 DIIS
   @RHF iter   9:  -323.04878722529247   -1.45746e-07   8.62970e-07 DIIS
   @RHF iter  10:  -323.04878723944421   -1.41517e-08   2.66186e-07 DIIS
   @RHF iter  11:  -323.04878724083125   -1.38704e-09   4.88785e-08 DIIS
   @RHF iter  12:  -323.04878724088303   -5.17844e-11   1.19097e-08 DIIS
   @RHF iter  13:  -323.04878724088758   -4.54747e-12   3.28133e-09 DIIS
   @RHF iter  14:  -323.04878724088690    6.82121e-13   1.42452e-09 DIIS
   @RHF iter  15:  -323.04878724088906   -2.16005e-12   4.99336e-10 DIIS
   @RHF iter  16:  -323.04878724088775    1.30740e-12   2.15496e-10 DIIS
   @RHF iter  17:  -323.04878724088701    7.38964e-13   9.48672e-11 DIIS
  Energy and wave function converged.


  ==> Post-Iterations <==

    Orbital Energies [Eh]
    ---------------------

    Doubly Occupied:                                                      

       1A    -20.593167     2A    -20.481674     3A    -15.558402  
       4A    -11.327546     5A    -11.304450     6A    -11.229466  
       7A     -1.386643     8A     -1.345466     9A     -1.191995  
      10A     -0.986338    11A     -0.948950    12A     -0.776868  
      13A     -0.719679    14A     -0.701015    15A     -0.649082  
      16A     -0.636316    17A     -0.620303    18A     -0.598004  
      19A     -0.551916    20A     -0.544353    21A     -0.522247  
      22A     -0.503967    23A     -0.479233    24A     -0.390141  
      25A     -0.379688  

    Virtual:                                                              

      26A      0.151607    27A      0.190908    28A      0.215510  
      29A      0.217588    30A      0.226591    31A      0.241045  
      32A      0.248536    33A      0.290026    34A      0.305840  
      35A      0.317022    36A      0.370329    37A      0.407468  
      38A      0.480361    39A      0.576415    40A      0.600614  
      41A      0.617022    42A      0.641026    43A      0.673227  
      44A      0.710046    45A      0.716827    46A      0.736785  
      47A      0.753512    48A      0.763173    49A      0.807433  
      50A      0.836077    51A      0.852228    52A      0.870691  
      53A      0.879585    54A      0.895711    55A      0.898649  
      56A      0.935113    57A      0.954404    58A      1.024256  
      59A      1.038813    60A      1.085412    61A      1.106604  
      62A      1.133988    63A      1.140262    64A      1.149445  
      65A      1.180205    66A      1.296074    67A      1.349481  
      68A      1.373045    69A      1.380403    70A      1.393835  
      71A      1.430057    72A      1.451441    73A      1.477838  
      74A      1.502399    75A      1.570775    76A      1.589824  
      77A      1.630459    78A      1.644196    79A      1.668981  
      80A      1.674082    81A      1.739295    82A      1.821150  
      83A      1.855044    84A      1.866708    85A      1.885360  
      86A      1.892061    87A      1.910517    88A      1.921861  
      89A      1.935608    90A      1.958912    91A      1.970621  
      92A      1.996911    93A      2.033759    94A      2.073144  
      95A      2.108632    96A      2.154854    97A      2.224371  
      98A      2.245782    99A      2.250117   100A      2.308632  
     101A      2.351278   102A      2.363584   103A      2.428915  
     104A      2.452136   105A      2.481452   106A      2.483361  
     107A      2.593658   108A      2.657430   109A      2.668771  
     110A      2.719616   111A      2.733853   112A      2.741946  
     113A      2.754662   114A      2.784475   115A      2.829185  
     116A      2.872482   117A      3.006407   118A      3.112025  
     119A      3.151155   120A      3.249050   121A      3.322002  
     122A      3.344835   123A      3.419740   124A      3.532239  
     125A      3.544896   126A      3.556230   127A      3.884314  
     128A      3.926505   129A      4.040051  

    Final Occupation by Irrep:
              A 
    DOCC [    25 ]

  @RHF Final Energy:  -323.04878724088701

   => Energetics <=

    Nuclear Repulsion Energy =            236.4983909636586361
    One-Electron Energy =                -910.2405364260399665
    Two-Electron Energy =                 350.6933582214943499
    Total Energy =                       -323.0487872408870089

Computation Completed


Properties will be evaluated at   0.000000,   0.000000,   0.000000 [a0]

Properties computed using the SCF density matrix

  Nuclear Dipole Moment: [e a0]
     X:     4.9343      Y:     6.6708      Z:     4.8311

  Electronic Dipole Moment: [e a0]
     X:    -3.2067      Y:    -4.9448      Z:    -3.6268

  Dipole Moment: [e a0]
     X:     1.7277      Y:     1.7260      Z:     1.2044     Total:     2.7230

  Dipole Moment: [D]
     X:     4.3913      Y:     4.3871      Z:     3.0613     Total:     6.9211


*** tstop() called on ds3 at Tue Apr 28 03:57:36 2020
Module time:
	user time   =      12.59 seconds =       0.21 minutes
	system time =       4.99 seconds =       0.08 minutes
	total time  =         31 seconds =       0.52 minutes
Total time:
	user time   =      12.59 seconds =       0.21 minutes
	system time =       4.99 seconds =       0.08 minutes
	total time  =         31 seconds =       0.52 minutes
                                     G D M A

                                 by Anthony Stone

                           version 2.2.06, 22 June 2011

               Distributed Multipoles from Gaussian wavefunctions


Starting at 3:57:36 on 28 Apr 2020  


Using SCF density matrix from file ./SSI/SSI-044ASN-048THR-2-dimer.test.27055.fchk


                         Distributed Multipole Analysis

Standard DMA

Positions and radii in angstrom
Multipole moments in atomic units, ea_0^k for rank k

C          x = -1.238656  y = -0.711770  z =  1.039061 angstrom
           Maximum rank =  0   Radius =  0.650 angstrom
                   Q00  =  -0.258804

C          x = -1.057656  y = -1.051770  z = -0.424939 angstrom
           Maximum rank =  0   Radius =  0.650 angstrom
                   Q00  =   0.830348

O          x = -1.809656  y = -1.841770  z = -0.994939 angstrom
           Maximum rank =  0   Radius =  0.650 angstrom
                   Q00  =  -0.817450

N          x = -0.046656  y = -0.460770  z = -1.041939 angstrom
           Maximum rank =  0   Radius =  0.650 angstrom
                   Q00  =  -0.550426

H          x =  0.135344  y = -0.690770  z = -2.004939 angstrom
           Maximum rank =  0   Radius =  0.325 angstrom
                   Q00  =   0.207321

H          x =  0.578344  y =  0.150230  z = -0.521939 angstrom
           Maximum rank =  0   Radius =  0.325 angstrom
                   Q00  =   0.260356

H          x = -0.702656  y =  0.204230  z =  1.277061 angstrom
           Maximum rank =  0   Radius =  0.325 angstrom
                   Q00  =   0.064119

H          x = -0.782656  y = -1.518770  z =  1.612061 angstrom
           Maximum rank =  0   Radius =  0.325 angstrom
                   Q00  =   0.121634

H          x = -2.295326  y = -0.591090  z =  1.319961 angstrom
           Maximum rank =  0   Radius =  0.325 angstrom
                   Q00  =   0.126479

C          x =  2.098344  y =  2.557230  z =  0.658061 angstrom
           Maximum rank =  0   Radius =  0.650 angstrom
                   Q00  =  -0.053275

O          x =  1.667344  y =  1.201230  z =  0.628061 angstrom
           Maximum rank =  0   Radius =  0.650 angstrom
                   Q00  =  -0.620187

H          x =  1.684344  y =  0.855230  z =  1.544061 angstrom
           Maximum rank =  0   Radius =  0.325 angstrom
                   Q00  =   0.399771

H          x =  2.326344  y =  2.859230  z = -0.364939 angstrom
           Maximum rank =  0   Radius =  0.325 angstrom
                   Q00  =   0.120551

H          x =  1.297269  y =  3.205210  z =  1.043261 angstrom
           Maximum rank =  0   Radius =  0.325 angstrom
                   Q00  =   0.086109

H          x =  3.023030  y =  2.644100  z =  1.247461 angstrom
           Maximum rank =  0   Radius =  0.325 angstrom
                   Q00  =   0.083455

Total multipoles referred to origin at
           x =   0.000000,  y =    0.000000,  z =    0.000000 angstrom
                   Q00  =  -0.000000

Finished at 3:57:37 on 28 Apr 2020  

  DMA results are available in the Python driver through the
	  variable('DMA DISTRIBUTED MULTIPOLES')
  and
	  variable('DMA TOTAL MULTIPOLES')
  commands.


    Psi4 stopped on: Tuesday, 28 April 2020 03:57AM
    Psi4 wall time for execution: 0:00:31.33

*** Psi4 exiting successfully. Buy a developer a beer!
