
    -----------------------------------------------------------------------
          Psi4: An Open-Source Ab Initio Electronic Structure Package
                               Psi4 1.3.2 release

                         Git: Rev {HEAD} ecbda83 


    R. M. Parrish, L. A. Burns, D. G. A. Smith, A. C. Simmonett,
    A. E. DePrince III, E. G. Hohenstein, U. Bozkaya, A. Yu. Sokolov,
    R. Di Remigio, R. M. Richard, J. F. Gonthier, A. M. James,
    H. R. McAlexander, A. Kumar, M. Saitow, X. Wang, B. P. Pritchard,
    P. Verma, H. F. Schaefer III, K. Patkowski, R. A. King, E. F. Valeev,
    F. A. Evangelista, J. M. Turney, T. D. Crawford, and C. D. Sherrill,
    J. Chem. Theory Comput. 13(7) pp 3185--3197 (2017).
    (doi: 10.1021/acs.jctc.7b00174)


                         Additional Contributions by
    P. Kraus, H. Kruse, M. H. Lechner, M. C. Schieber, R. A. Shaw,
    A. Alenaizan, R. Galvelis, Z. L. Glick, S. Lehtola, and J. P. Misiewicz

    -----------------------------------------------------------------------


    Psi4 started on: Tuesday, 28 April 2020 08:26PM

    Process ID: 27497
    Host:       ds3
    PSIDATADIR: /theoryfs2/ds/metcalf/miniconda2/envs/tf2gpu/share/psi4
    Memory:     500.0 MiB
    Threads:    1
    
  ==> Input File <==

--------------------------------------------------------------------------
import numpy as np
set {scf_type pk
basis cc-pvdz
d_convergence 10
gdma_switch   0
gdma_limit    0
gdma_origin   [ 0.0,  0.0,  0.0 ]
}
molecule test {
    units Angstrom
    -1 1
    --
    -1 1
    C                0.415143859552513    -0.136596782780588     0.980965471589052
    C               -0.590856140447487    -1.286596782780588     1.153965471589052
    C               -0.163856140447487     1.242403217219412     1.299965471589052
    O               -1.168856140447487     1.344403217219412     2.041965471589052
    O                0.434143859552513     2.231403217219412     0.818965471589052
    H                1.271143859552513    -0.313596782780588     1.632965471589052
    H                0.787143859552513    -0.143596782780588    -0.041034528410948
    H               -0.028856140447487    -2.209596782780588     1.006965471589052
    H               -1.385216140447487    -1.221720782780588     0.395818471589052
    H               -1.012336140447487    -1.333188782780589     2.168947471589052
    C                1.060143859552513    -1.436596782780589    -2.558034528410948
    C                0.021143859552513    -1.873596782780588    -3.581034528410948
    H                0.874143859552513    -0.410596782780588    -2.250034528410949
    H                0.998143859552513    -2.079596782780588    -1.680034528410948
    H                2.061143859552514    -1.509596782780589    -2.983034528410948
    H               -0.963856140447487    -1.767596782780588    -3.132034528410948
    H                0.071443859552513    -1.259264782780588    -4.492114528410949
    H                0.155993859552513    -2.935743782780588    -3.833339528410948

}
e, wfn = energy('scf', return_wfn=True)
gdma(wfn)
dmavals = variable('DMA DISTRIBUTED MULTIPOLES')
charges = np.array(dmavals)
print(charges)
np.save('SSI-152ASP-158LEU-1-dimer.npy', np.array(charges))--------------------------------------------------------------------------

*** tstart() called on ds3
*** at Tue Apr 28 20:26:18 2020

   => Loading Basis Set <=

    Name: CC-PVDZ
    Role: ORBITAL
    Keyword: BASIS
    atoms 1-3, 11-12  entry C          line   138 file /theoryfs2/ds/metcalf/miniconda2/envs/tf2gpu/share/psi4/basis/cc-pvdz.gbs 
    atoms 4-5         entry O          line   198 file /theoryfs2/ds/metcalf/miniconda2/envs/tf2gpu/share/psi4/basis/cc-pvdz.gbs 
    atoms 6-10, 13-18 entry H          line    22 file /theoryfs2/ds/metcalf/miniconda2/envs/tf2gpu/share/psi4/basis/cc-pvdz.gbs 


         ---------------------------------------------------------
                                   SCF
               by Justin Turney, Rob Parrish, Andy Simmonett
                          and Daniel G. A. Smith
                              RHF Reference
                        1 Threads,    500 MiB Core
         ---------------------------------------------------------

  ==> Geometry <==

    Molecular point group: c1
    Full point group: C1

    Geometry (in Angstrom), charge = -1, multiplicity = 1:

       Center              X                  Y                   Z               Mass       
    ------------   -----------------  -----------------  -----------------  -----------------
         C            0.415143859553    -0.136596782781     0.980965471589    12.000000000000
         C           -0.590856140447    -1.286596782781     1.153965471589    12.000000000000
         C           -0.163856140447     1.242403217219     1.299965471589    12.000000000000
         O           -1.168856140447     1.344403217219     2.041965471589    15.994914619570
         O            0.434143859553     2.231403217219     0.818965471589    15.994914619570
         H            1.271143859553    -0.313596782781     1.632965471589     1.007825032230
         H            0.787143859553    -0.143596782781    -0.041034528411     1.007825032230
         H           -0.028856140447    -2.209596782781     1.006965471589     1.007825032230
         H           -1.385216140447    -1.221720782781     0.395818471589     1.007825032230
         H           -1.012336140447    -1.333188782781     2.168947471589     1.007825032230
         C            1.060143859553    -1.436596782781    -2.558034528411    12.000000000000
         C            0.021143859553    -1.873596782781    -3.581034528411    12.000000000000
         H            0.874143859553    -0.410596782781    -2.250034528411     1.007825032230
         H            0.998143859553    -2.079596782781    -1.680034528411     1.007825032230
         H            2.061143859553    -1.509596782781    -2.983034528411     1.007825032230
         H           -0.963856140447    -1.767596782781    -3.132034528411     1.007825032230
         H            0.071443859553    -1.259264782781    -4.492114528411     1.007825032230
         H            0.155993859553    -2.935743782781    -3.833339528411     1.007825032230

  Running in c1 symmetry.

  Rotational constants: A =      0.12145  B =      0.02700  C =      0.02433 [cm^-1]
  Rotational constants: A =   3641.09746  B =    809.44625  C =    729.37848 [MHz]
  Nuclear repulsion =  285.547143627176638

  Charge       = -1
  Multiplicity = 1
  Electrons    = 58
  Nalpha       = 29
  Nbeta        = 29

  ==> Algorithm <==

  SCF Algorithm Type is PK.
  DIIS enabled.
  MOM disabled.
  Fractional occupation disabled.
  Guess Type is SAD.
  Energy threshold   = 1.00e-06
  Density threshold  = 1.00e-10
  Integral threshold = 0.00e+00

  ==> Primary Basis <==

  Basis Set: CC-PVDZ
    Blend: CC-PVDZ
    Number of shells: 75
    Number of basis function: 153
    Number of Cartesian functions: 160
    Spherical Harmonics?: true
    Max angular momentum: 2

  ==> Pre-Iterations <==

   -------------------------------------------------------
    Irrep   Nso     Nmo     Nalpha   Nbeta   Ndocc  Nsocc
   -------------------------------------------------------
     A        153     153       0       0       0       0
   -------------------------------------------------------
    Total     153     153      29      29      29       0
   -------------------------------------------------------

  ==> Integral Setup <==

  Using integral reordering PK algorithm.
  Sizing the integral batches needed.
  Building batch lookup table.
   Calculation information:
      Number of atoms:                  18
      Number of AO shells:              75
      Number of primitives:            209
      Number of atomic orbitals:       160
      Number of basis functions:       153

      Integral cutoff                 1.00e-12
      Number of threads:                 1

	Batch   1 pq = [       0,    9405] index = [             0,44231715] size =     44231715
	Batch   2 pq = [    9405,   11781] index = [      44231715,69401871] size =     25170156
  Task number: 7
  Buffer size: 11059200
  Buffer per thread: 2
  We computed 3331042 shell quartets total.
  Whereas there are 4062675 unique shell quartets.

  ==> DiskJK: Disk-Based J/K Matrices <==

    J tasked:                  Yes
    K tasked:                  Yes
    wK tasked:                  No
    Memory [MiB]:              375
    Schwarz Cutoff:          1E-12

    OpenMP threads:              1

  Minimum eigenvalue in the overlap matrix is 3.8445453048E-03.
  Using Symmetric Orthogonalization.

  SCF Guess: Superposition of Atomic Densities via on-the-fly atomic UHF.

  ==> Iterations <==

                        Total Energy        Delta E     RMS |[F,P]|

   @RHF iter SAD:  -343.84052971975035   -3.43841e+02   0.00000e+00 
   @RHF iter   1:  -345.21945314264315   -1.37892e+00   4.91672e-03 DIIS
   @RHF iter   2:  -345.44133807201797   -2.21885e-01   2.71633e-03 DIIS
   @RHF iter   3:  -345.50625218306720   -6.49141e-02   4.25882e-04 DIIS
   @RHF iter   4:  -345.50925566590809   -3.00348e-03   1.67643e-04 DIIS
   @RHF iter   5:  -345.50969669807239   -4.41032e-04   2.45352e-05 DIIS
   @RHF iter   6:  -345.50970984364847   -1.31456e-05   6.55237e-06 DIIS
   @RHF iter   7:  -345.50971053118678   -6.87538e-07   2.69352e-06 DIIS
   @RHF iter   8:  -345.50971062357189   -9.23851e-08   7.29818e-07 DIIS
   @RHF iter   9:  -345.50971063283083   -9.25894e-09   2.23516e-07 DIIS
   @RHF iter  10:  -345.50971063402392   -1.19309e-09   5.13672e-08 DIIS
   @RHF iter  11:  -345.50971063411663   -9.27116e-11   1.44181e-08 DIIS
   @RHF iter  12:  -345.50971063412396   -7.33280e-12   5.39665e-09 DIIS
   @RHF iter  13:  -345.50971063412766   -3.69482e-12   2.15828e-09 DIIS
   @RHF iter  14:  -345.50971063412709    5.68434e-13   7.24476e-10 DIIS
   @RHF iter  15:  -345.50971063412783   -7.38964e-13   2.51392e-10 DIIS
   @RHF iter  16:  -345.50971063412442    3.41061e-12   8.22337e-11 DIIS
  Energy and wave function converged.


  ==> Post-Iterations <==

    Orbital Energies [Eh]
    ---------------------

    Doubly Occupied:                                                      

       1A    -20.255851     2A    -20.250040     3A    -11.134091  
       4A    -11.121668     5A    -11.108748     6A    -11.072856  
       7A    -11.051028     8A     -1.141822     9A     -1.028675  
      10A     -0.930847    11A     -0.866484    12A     -0.747428  
      13A     -0.699724    14A     -0.511782    15A     -0.509297  
      16A     -0.501909    17A     -0.456004    18A     -0.425111  
      19A     -0.411934    20A     -0.396951    21A     -0.395110  
      22A     -0.382772    23A     -0.358504    24A     -0.354409  
      25A     -0.324244    26A     -0.294179    27A     -0.175633  
      28A     -0.165002    29A     -0.154449  

    Virtual:                                                              

      30A      0.268294    31A      0.315420    32A      0.326460  
      33A      0.334418    34A      0.352994    35A      0.371561  
      36A      0.374183    37A      0.402100    38A      0.417981  
      39A      0.442903    40A      0.449311    41A      0.485586  
      42A      0.518751    43A      0.553362    44A      0.616153  
      45A      0.684606    46A      0.687494    47A      0.694635  
      48A      0.710318    49A      0.719064    50A      0.759655  
      51A      0.775576    52A      0.787164    53A      0.869045  
      54A      0.888964    55A      0.942166    56A      0.946649  
      57A      0.963688    58A      0.976295    59A      0.976862  
      60A      0.988330    61A      0.998365    62A      1.001125  
      63A      1.028004    64A      1.039906    65A      1.051812  
      66A      1.055936    67A      1.061755    68A      1.074968  
      69A      1.083815    70A      1.093349    71A      1.132987  
      72A      1.152127    73A      1.217580    74A      1.235184  
      75A      1.300844    76A      1.302436    77A      1.331197  
      78A      1.343646    79A      1.396991    80A      1.462177  
      81A      1.505595    82A      1.544370    83A      1.562614  
      84A      1.579692    85A      1.602711    86A      1.609486  
      87A      1.643389    88A      1.657433    89A      1.668761  
      90A      1.730730    91A      1.766266    92A      1.790752  
      93A      1.812075    94A      1.833901    95A      1.886383  
      96A      1.915540    97A      1.945403    98A      1.966280  
      99A      2.002478   100A      2.026122   101A      2.030275  
     102A      2.033910   103A      2.039346   104A      2.042136  
     105A      2.048621   106A      2.062849   107A      2.093669  
     108A      2.128385   109A      2.138184   110A      2.144825  
     111A      2.181188   112A      2.186196   113A      2.193403  
     114A      2.206806   115A      2.218017   116A      2.268745  
     117A      2.368108   118A      2.387452   119A      2.398371  
     120A      2.406847   121A      2.456255   122A      2.484912  
     123A      2.547528   124A      2.553386   125A      2.567323  
     126A      2.592978   127A      2.649874   128A      2.659120  
     129A      2.670471   130A      2.711406   131A      2.755778  
     132A      2.813072   133A      2.845421   134A      2.888072  
     135A      2.916876   136A      2.943643   137A      2.951999  
     138A      2.997117   139A      3.012267   140A      3.052765  
     141A      3.058109   142A      3.073085   143A      3.125843  
     144A      3.253739   145A      3.293298   146A      3.307505  
     147A      3.366724   148A      3.641125   149A      3.781116  
     150A      3.836308   151A      4.053904   152A      4.084054  
     153A      4.205183  

    Final Occupation by Irrep:
              A 
    DOCC [    29 ]

  @RHF Final Energy:  -345.50971063412442

   => Energetics <=

    Nuclear Repulsion Energy =            285.5471436271766379
    One-Electron Energy =               -1047.6606044281722916
    Two-Electron Energy =                 416.6037501668712366
    Total Energy =                       -345.5097106341244171

Computation Completed


Properties will be evaluated at   0.000000,   0.000000,   0.000000 [a0]

Properties computed using the SCF density matrix

  Nuclear Dipole Moment: [e a0]
     X:     2.6485      Y:   -14.2174      Z:   -12.3673

  Electronic Dipole Moment: [e a0]
     X:    -1.8500      Y:    10.9701      Z:     9.8268

  Dipole Moment: [e a0]
     X:     0.7985      Y:    -3.2474      Z:    -2.5405     Total:     4.1997

  Dipole Moment: [D]
     X:     2.0296      Y:    -8.2540      Z:    -6.4574     Total:    10.6745


*** tstop() called on ds3 at Tue Apr 28 20:26:52 2020
Module time:
	user time   =      21.68 seconds =       0.36 minutes
	system time =       9.48 seconds =       0.16 minutes
	total time  =         34 seconds =       0.57 minutes
Total time:
	user time   =      21.68 seconds =       0.36 minutes
	system time =       9.48 seconds =       0.16 minutes
	total time  =         34 seconds =       0.57 minutes
                                     G D M A

                                 by Anthony Stone

                           version 2.2.06, 22 June 2011

               Distributed Multipoles from Gaussian wavefunctions


Starting at 20:26:52 on 28 Apr 2020 


Using SCF density matrix from file ./SSI/SSI-152ASP-158LEU-1-dimer.test.27497.fchk


                         Distributed Multipole Analysis

Standard DMA

Positions and radii in angstrom
Multipole moments in atomic units, ea_0^k for rank k

C          x =  0.415144  y = -0.136597  z =  0.980965 angstrom
           Maximum rank =  0   Radius =  0.650 angstrom
                   Q00  =  -0.134721

C          x = -0.590856  y = -1.286597  z =  1.153965 angstrom
           Maximum rank =  0   Radius =  0.650 angstrom
                   Q00  =  -0.235934

C          x = -0.163856  y =  1.242403  z =  1.299965 angstrom
           Maximum rank =  0   Radius =  0.650 angstrom
                   Q00  =   1.023409

O          x = -1.168856  y =  1.344403  z =  2.041965 angstrom
           Maximum rank =  0   Radius =  0.650 angstrom
                   Q00  =  -0.958659

O          x =  0.434144  y =  2.231403  z =  0.818965 angstrom
           Maximum rank =  0   Radius =  0.650 angstrom
                   Q00  =  -0.945279

H          x =  1.271144  y = -0.313597  z =  1.632965 angstrom
           Maximum rank =  0   Radius =  0.325 angstrom
                   Q00  =   0.054601

H          x =  0.787144  y = -0.143597  z = -0.041035 angstrom
           Maximum rank =  0   Radius =  0.325 angstrom
                   Q00  =   0.024661

H          x = -0.028856  y = -2.209597  z =  1.006965 angstrom
           Maximum rank =  0   Radius =  0.325 angstrom
                   Q00  =   0.008763

H          x = -1.385216  y = -1.221721  z =  0.395818 angstrom
           Maximum rank =  0   Radius =  0.325 angstrom
                   Q00  =   0.067232

H          x = -1.012336  y = -1.333189  z =  2.168947 angstrom
           Maximum rank =  0   Radius =  0.325 angstrom
                   Q00  =   0.090991

C          x =  1.060144  y = -1.436597  z = -2.558035 angstrom
           Maximum rank =  0   Radius =  0.650 angstrom
                   Q00  =  -0.220455

C          x =  0.021144  y = -1.873597  z = -3.581035 angstrom
           Maximum rank =  0   Radius =  0.650 angstrom
                   Q00  =  -0.239085

H          x =  0.874144  y = -0.410597  z = -2.250035 angstrom
           Maximum rank =  0   Radius =  0.325 angstrom
                   Q00  =   0.107865

H          x =  0.998144  y = -2.079597  z = -1.680035 angstrom
           Maximum rank =  0   Radius =  0.325 angstrom
                   Q00  =   0.086351

H          x =  2.061144  y = -1.509597  z = -2.983035 angstrom
           Maximum rank =  0   Radius =  0.325 angstrom
                   Q00  =   0.058116

H          x = -0.963856  y = -1.767597  z = -3.132035 angstrom
           Maximum rank =  0   Radius =  0.325 angstrom
                   Q00  =   0.085590

H          x =  0.071444  y = -1.259265  z = -4.492115 angstrom
           Maximum rank =  0   Radius =  0.325 angstrom
                   Q00  =   0.068510

H          x =  0.155994  y = -2.935744  z = -3.833340 angstrom
           Maximum rank =  0   Radius =  0.325 angstrom
                   Q00  =   0.058046

Total multipoles referred to origin at
           x =   0.000000,  y =    0.000000,  z =    0.000000 angstrom
                   Q00  =  -1.000000

Finished at 20:26:52 on 28 Apr 2020 

  DMA results are available in the Python driver through the
	  variable('DMA DISTRIBUTED MULTIPOLES')
  and
	  variable('DMA TOTAL MULTIPOLES')
  commands.


    Psi4 stopped on: Tuesday, 28 April 2020 08:26PM
    Psi4 wall time for execution: 0:00:34.49

*** Psi4 exiting successfully. Buy a developer a beer!
