
    -----------------------------------------------------------------------
          Psi4: An Open-Source Ab Initio Electronic Structure Package
                               Psi4 1.3.2 release

                         Git: Rev {HEAD} ecbda83 


    R. M. Parrish, L. A. Burns, D. G. A. Smith, A. C. Simmonett,
    A. E. DePrince III, E. G. Hohenstein, U. Bozkaya, A. Yu. Sokolov,
    R. Di Remigio, R. M. Richard, J. F. Gonthier, A. M. James,
    H. R. McAlexander, A. Kumar, M. Saitow, X. Wang, B. P. Pritchard,
    P. Verma, H. F. Schaefer III, K. Patkowski, R. A. King, E. F. Valeev,
    F. A. Evangelista, J. M. Turney, T. D. Crawford, and C. D. Sherrill,
    J. Chem. Theory Comput. 13(7) pp 3185--3197 (2017).
    (doi: 10.1021/acs.jctc.7b00174)


                         Additional Contributions by
    P. Kraus, H. Kruse, M. H. Lechner, M. C. Schieber, R. A. Shaw,
    A. Alenaizan, R. Galvelis, Z. L. Glick, S. Lehtola, and J. P. Misiewicz

    -----------------------------------------------------------------------


    Psi4 started on: Monday, 27 April 2020 04:42PM

    Process ID: 27779
    Host:       ds3
    PSIDATADIR: /theoryfs2/ds/metcalf/miniconda2/envs/tf2gpu/share/psi4
    Memory:     500.0 MiB
    Threads:    1
    
  ==> Input File <==

--------------------------------------------------------------------------
import numpy as np
set {scf_type pk
basis cc-pvdz
d_convergence 10
gdma_switch   0
gdma_limit    0
gdma_origin   [ 0.0,  0.0,  0.0 ]
}
molecule test {
    units Angstrom
    0 1
    --
    0 1
    C               -0.910129798130102     1.332906356922188     0.324115204628412
    C               -1.076129798130101     2.831906356922187     0.573115204628413
    H               -1.798129798130102     0.928906356922187    -0.165884795371587
    H               -0.051129798130102     1.177906356922187    -0.329884795371588
    H               -0.728129798130101     0.787906356922187     1.251115204628413
    H               -0.172129798130102     3.215906356922187     1.036115204628413
    H               -1.941269798130101     3.029146356922187     1.223216204628412
    H               -1.183659798130102     3.360916356922187    -0.385311795371587
    C                0.254870201869898    -2.130093643077813    -0.638884795371587
    C                1.727870201869899    -2.039093643077813    -0.255884795371587
    H               -0.314129798130102    -2.651093643077813     0.131115204628413
    H               -0.166129798130102    -1.131093643077813    -0.739884795371587
    H                0.141870201869898    -2.647093643077813    -1.593884795371587
    H                1.795870201869898    -1.691093643077813     0.774115204628413
    H                2.212320201869898    -3.023084643077813    -0.339980795371587
    H                2.246550201869898    -1.305141643077813    -0.890145795371587

}
e, wfn = energy('scf', return_wfn=True)
gdma(wfn)
dmavals = variable('DMA DISTRIBUTED MULTIPOLES')
charges = np.array(dmavals)
print(charges)
np.save('SSI-164VAL-225LEU-1-dimer.npy', np.array(charges))--------------------------------------------------------------------------

*** tstart() called on ds3
*** at Mon Apr 27 16:42:19 2020

   => Loading Basis Set <=

    Name: CC-PVDZ
    Role: ORBITAL
    Keyword: BASIS
    atoms 1-2, 9-10  entry C          line   138 file /theoryfs2/ds/metcalf/miniconda2/envs/tf2gpu/share/psi4/basis/cc-pvdz.gbs 
    atoms 3-8, 11-16 entry H          line    22 file /theoryfs2/ds/metcalf/miniconda2/envs/tf2gpu/share/psi4/basis/cc-pvdz.gbs 


         ---------------------------------------------------------
                                   SCF
               by Justin Turney, Rob Parrish, Andy Simmonett
                          and Daniel G. A. Smith
                              RHF Reference
                        1 Threads,    500 MiB Core
         ---------------------------------------------------------

  ==> Geometry <==

    Molecular point group: c1
    Full point group: C1

    Geometry (in Angstrom), charge = 0, multiplicity = 1:

       Center              X                  Y                   Z               Mass       
    ------------   -----------------  -----------------  -----------------  -----------------
         C           -0.910129798130     1.332906356922     0.324115204628    12.000000000000
         C           -1.076129798130     2.831906356922     0.573115204628    12.000000000000
         H           -1.798129798130     0.928906356922    -0.165884795372     1.007825032230
         H           -0.051129798130     1.177906356922    -0.329884795372     1.007825032230
         H           -0.728129798130     0.787906356922     1.251115204628     1.007825032230
         H           -0.172129798130     3.215906356922     1.036115204628     1.007825032230
         H           -1.941269798130     3.029146356922     1.223216204628     1.007825032230
         H           -1.183659798130     3.360916356922    -0.385311795372     1.007825032230
         C            0.254870201870    -2.130093643078    -0.638884795372    12.000000000000
         C            1.727870201870    -2.039093643078    -0.255884795372    12.000000000000
         H           -0.314129798130    -2.651093643078     0.131115204628     1.007825032230
         H           -0.166129798130    -1.131093643078    -0.739884795372     1.007825032230
         H            0.141870201870    -2.647093643078    -1.593884795372     1.007825032230
         H            1.795870201870    -1.691093643078     0.774115204628     1.007825032230
         H            2.212320201870    -3.023084643078    -0.339980795372     1.007825032230
         H            2.246550201870    -1.305141643078    -0.890145795372     1.007825032230

  Running in c1 symmetry.

  Rotational constants: A =      0.53463  B =      0.04643  C =      0.04420 [cm^-1]
  Rotational constants: A =  16027.72821  B =   1391.98147  C =   1325.22513 [MHz]
  Nuclear repulsion =  121.583400580398006

  Charge       = 0
  Multiplicity = 1
  Electrons    = 36
  Nalpha       = 18
  Nbeta        = 18

  ==> Algorithm <==

  SCF Algorithm Type is PK.
  DIIS enabled.
  MOM disabled.
  Fractional occupation disabled.
  Guess Type is SAD.
  Energy threshold   = 1.00e-06
  Density threshold  = 1.00e-10
  Integral threshold = 0.00e+00

  ==> Primary Basis <==

  Basis Set: CC-PVDZ
    Blend: CC-PVDZ
    Number of shells: 60
    Number of basis function: 116
    Number of Cartesian functions: 120
    Spherical Harmonics?: true
    Max angular momentum: 2

  ==> Pre-Iterations <==

   -------------------------------------------------------
    Irrep   Nso     Nmo     Nalpha   Nbeta   Ndocc  Nsocc
   -------------------------------------------------------
     A        116     116       0       0       0       0
   -------------------------------------------------------
    Total     116     116      18      18      18       0
   -------------------------------------------------------

  ==> Integral Setup <==

  Using integral reordering PK algorithm.
  Sizing the integral batches needed.
  Building batch lookup table.
   Calculation information:
      Number of atoms:                  16
      Number of AO shells:              60
      Number of primitives:            148
      Number of atomic orbitals:       120
      Number of basis functions:       116

      Integral cutoff                 1.00e-12
      Number of threads:                 1

	Batch   1 pq = [       0,    6786] index = [             0,23028291] size =     23028291
  Task number: 3
  Buffer size: 11059200
  Buffer per thread: 2
  We computed 1403580 shell quartets total.
  Whereas there are 1675365 unique shell quartets.

  ==> DiskJK: Disk-Based J/K Matrices <==

    J tasked:                  Yes
    K tasked:                  Yes
    wK tasked:                  No
    Memory [MiB]:              375
    Schwarz Cutoff:          1E-12

    OpenMP threads:              1

  Minimum eigenvalue in the overlap matrix is 6.0446811281E-03.
  Using Symmetric Orthogonalization.

  SCF Guess: Superposition of Atomic Densities via on-the-fly atomic UHF.

  ==> Iterations <==

                        Total Energy        Delta E     RMS |[F,P]|

   @RHF iter SAD:  -157.35513345232678   -1.57355e+02   0.00000e+00 
   @RHF iter   1:  -158.30758313487584   -9.52450e-01   4.21411e-03 DIIS
   @RHF iter   2:  -158.44104032901393   -1.33457e-01   1.79761e-03 DIIS
   @RHF iter   3:  -158.46449336313748   -2.34530e-02   3.50270e-04 DIIS
   @RHF iter   4:  -158.46633571579625   -1.84235e-03   3.89760e-05 DIIS
   @RHF iter   5:  -158.46635972369711   -2.40079e-05   6.55070e-06 DIIS
   @RHF iter   6:  -158.46636036060966   -6.36913e-07   1.08041e-06 DIIS
   @RHF iter   7:  -158.46636037243618   -1.18265e-08   3.19741e-07 DIIS
   @RHF iter   8:  -158.46636037335242   -9.16231e-10   4.47604e-08 DIIS
   @RHF iter   9:  -158.46636037338595   -3.35376e-11   9.38174e-09 DIIS
   @RHF iter  10:  -158.46636037338797   -2.01794e-12   2.33594e-09 DIIS
   @RHF iter  11:  -158.46636037338797    0.00000e+00   4.10220e-10 DIIS
   @RHF iter  12:  -158.46636037338783    1.42109e-13   1.14959e-10 DIIS
   @RHF iter  13:  -158.46636037338811   -2.84217e-13   3.08373e-11 DIIS
  Energy and wave function converged.


  ==> Post-Iterations <==

    Orbital Energies [Eh]
    ---------------------

    Doubly Occupied:                                                      

       1A    -11.219841     2A    -11.218499     3A    -11.218212  
       4A    -11.214172     5A     -1.019860     6A     -1.016900  
       7A     -0.840071     8A     -0.834201     9A     -0.601805  
      10A     -0.597651    11A     -0.596570    12A     -0.594474  
      13A     -0.506233    14A     -0.499423    15A     -0.489408  
      16A     -0.485770    17A     -0.483306    18A     -0.478952  

    Virtual:                                                              

      19A      0.171741    20A      0.195682    21A      0.225874  
      22A      0.233540    23A      0.242751    24A      0.261026  
      25A      0.264503    26A      0.271973    27A      0.282287  
      28A      0.289405    29A      0.311010    30A      0.332256  
      31A      0.393028    32A      0.421736    33A      0.581480  
      34A      0.595494    35A      0.597752    36A      0.599830  
      37A      0.607770    38A      0.649274    39A      0.674284  
      40A      0.703763    41A      0.708303    42A      0.733184  
      43A      0.845930    44A      0.877303    45A      0.883157  
      46A      0.890724    47A      0.891453    48A      0.894427  
      49A      0.896611    50A      0.912840    51A      0.921373  
      52A      0.927923    53A      0.928565    54A      0.939274  
      55A      0.984300    56A      1.014373    57A      1.120633  
      58A      1.122682    59A      1.128883    60A      1.137880  
      61A      1.233046    62A      1.283426    63A      1.468263  
      64A      1.473218    65A      1.478672    66A      1.486941  
      67A      1.571685    68A      1.584353    69A      1.680734  
      70A      1.684592    71A      1.693550    72A      1.701065  
      73A      1.842936    74A      1.860595    75A      1.874189  
      76A      1.879893    77A      1.894749    78A      1.916876  
      79A      1.938651    80A      1.940322    81A      1.944170  
      82A      1.946678    83A      1.949473    84A      1.955406  
      85A      1.961088    86A      1.967759    87A      1.972202  
      88A      2.046759    89A      2.092495    90A      2.107248  
      91A      2.114762    92A      2.136670    93A      2.299740  
      94A      2.307225    95A      2.315422    96A      2.336916  
      97A      2.441055    98A      2.452245    99A      2.457121  
     100A      2.471640   101A      2.553168   102A      2.567845  
     103A      2.571374   104A      2.591989   105A      2.755293  
     106A      2.762169   107A      2.780031   108A      2.802913  
     109A      2.848471   110A      2.849990   111A      2.860888  
     112A      2.865472   113A      2.939410   114A      2.952211  
     115A      2.954979   116A      2.975406  

    Final Occupation by Irrep:
              A 
    DOCC [    18 ]

  @RHF Final Energy:  -158.46636037338811

   => Energetics <=

    Nuclear Repulsion Energy =            121.5834005803980062
    One-Electron Energy =                -452.2688270444378986
    Two-Electron Energy =                 172.2190660906517792
    Total Energy =                       -158.4663603733881132

Computation Completed


Properties will be evaluated at   0.000000,   0.000000,   0.000000 [a0]

Properties computed using the SCF density matrix

  Nuclear Dipole Moment: [e a0]
     X:     0.0393      Y:     0.0488      Z:    -0.0275

  Electronic Dipole Moment: [e a0]
     X:    -0.0464      Y:    -0.0201      Z:     0.0338

  Dipole Moment: [e a0]
     X:    -0.0072      Y:     0.0288      Z:     0.0063     Total:     0.0303

  Dipole Moment: [D]
     X:    -0.0182      Y:     0.0731      Z:     0.0160     Total:     0.0770


*** tstop() called on ds3 at Mon Apr 27 16:42:31 2020
Module time:
	user time   =       8.84 seconds =       0.15 minutes
	system time =       4.48 seconds =       0.07 minutes
	total time  =         12 seconds =       0.20 minutes
Total time:
	user time   =       8.84 seconds =       0.15 minutes
	system time =       4.48 seconds =       0.07 minutes
	total time  =         12 seconds =       0.20 minutes
                                     G D M A

                                 by Anthony Stone

                           version 2.2.06, 22 June 2011

               Distributed Multipoles from Gaussian wavefunctions


Starting at 16:42:32 on 27 Apr 2020 


Using SCF density matrix from file ./SSI/SSI-164VAL-225LEU-1-dimer.test.27779.fchk


                         Distributed Multipole Analysis

Standard DMA

Positions and radii in angstrom
Multipole moments in atomic units, ea_0^k for rank k

C          x = -0.910130  y =  1.332906  z =  0.324115 angstrom
           Maximum rank =  0   Radius =  0.650 angstrom
                   Q00  =  -0.247784

C          x = -1.076130  y =  2.831906  z =  0.573115 angstrom
           Maximum rank =  0   Radius =  0.650 angstrom
                   Q00  =  -0.226020

H          x = -1.798130  y =  0.928906  z = -0.165885 angstrom
           Maximum rank =  0   Radius =  0.325 angstrom
                   Q00  =   0.078580

H          x = -0.051130  y =  1.177906  z = -0.329885 angstrom
           Maximum rank =  0   Radius =  0.325 angstrom
                   Q00  =   0.074649

H          x = -0.728130  y =  0.787906  z =  1.251115 angstrom
           Maximum rank =  0   Radius =  0.325 angstrom
                   Q00  =   0.081758

H          x = -0.172130  y =  3.215906  z =  1.036115 angstrom
           Maximum rank =  0   Radius =  0.325 angstrom
                   Q00  =   0.080684

H          x = -1.941270  y =  3.029146  z =  1.223216 angstrom
           Maximum rank =  0   Radius =  0.325 angstrom
                   Q00  =   0.081750

H          x = -1.183660  y =  3.360916  z = -0.385312 angstrom
           Maximum rank =  0   Radius =  0.325 angstrom
                   Q00  =   0.078975

C          x =  0.254870  y = -2.130094  z = -0.638885 angstrom
           Maximum rank =  0   Radius =  0.650 angstrom
                   Q00  =  -0.250122

C          x =  1.727870  y = -2.039094  z = -0.255885 angstrom
           Maximum rank =  0   Radius =  0.650 angstrom
                   Q00  =  -0.225743

H          x = -0.314130  y = -2.651094  z =  0.131115 angstrom
           Maximum rank =  0   Radius =  0.325 angstrom
                   Q00  =   0.077932

H          x = -0.166130  y = -1.131094  z = -0.739885 angstrom
           Maximum rank =  0   Radius =  0.325 angstrom
                   Q00  =   0.085231

H          x =  0.141870  y = -2.647094  z = -1.593885 angstrom
           Maximum rank =  0   Radius =  0.325 angstrom
                   Q00  =   0.076661

H          x =  1.795870  y = -1.691094  z =  0.774115 angstrom
           Maximum rank =  0   Radius =  0.325 angstrom
                   Q00  =   0.076902

H          x =  2.212320  y = -3.023085  z = -0.339981 angstrom
           Maximum rank =  0   Radius =  0.325 angstrom
                   Q00  =   0.079577

H          x =  2.246550  y = -1.305142  z = -0.890146 angstrom
           Maximum rank =  0   Radius =  0.325 angstrom
                   Q00  =   0.076968

Total multipoles referred to origin at
           x =   0.000000,  y =    0.000000,  z =    0.000000 angstrom
                   Q00  =  -0.000000

Finished at 16:42:32 on 27 Apr 2020 

  DMA results are available in the Python driver through the
	  variable('DMA DISTRIBUTED MULTIPOLES')
  and
	  variable('DMA TOTAL MULTIPOLES')
  commands.


    Psi4 stopped on: Monday, 27 April 2020 04:42PM
    Psi4 wall time for execution: 0:00:13.04

*** Psi4 exiting successfully. Buy a developer a beer!
