
    -----------------------------------------------------------------------
          Psi4: An Open-Source Ab Initio Electronic Structure Package
                               Psi4 1.3.2 release

                         Git: Rev {HEAD} ecbda83 


    R. M. Parrish, L. A. Burns, D. G. A. Smith, A. C. Simmonett,
    A. E. DePrince III, E. G. Hohenstein, U. Bozkaya, A. Yu. Sokolov,
    R. Di Remigio, R. M. Richard, J. F. Gonthier, A. M. James,
    H. R. McAlexander, A. Kumar, M. Saitow, X. Wang, B. P. Pritchard,
    P. Verma, H. F. Schaefer III, K. Patkowski, R. A. King, E. F. Valeev,
    F. A. Evangelista, J. M. Turney, T. D. Crawford, and C. D. Sherrill,
    J. Chem. Theory Comput. 13(7) pp 3185--3197 (2017).
    (doi: 10.1021/acs.jctc.7b00174)


                         Additional Contributions by
    P. Kraus, H. Kruse, M. H. Lechner, M. C. Schieber, R. A. Shaw,
    A. Alenaizan, R. Galvelis, Z. L. Glick, S. Lehtola, and J. P. Misiewicz

    -----------------------------------------------------------------------


    Psi4 started on: Sunday, 26 April 2020 08:42PM

    Process ID: 9896
    Host:       ds3
    PSIDATADIR: /theoryfs2/ds/metcalf/miniconda2/envs/tf2gpu/share/psi4
    Memory:     500.0 MiB
    Threads:    1
    
  ==> Input File <==

--------------------------------------------------------------------------
import numpy as np
set {scf_type pk
basis cc-pvdz
d_convergence 10
gdma_switch   0
gdma_limit    0
gdma_origin   [ 0.0,  0.0,  0.0 ]
}
molecule test {
    units Angstrom
    0 1
    --
    0 1
    C               -3.120834935881412    -0.184504853015112     1.651348049615499
    C               -2.814834935881412    -1.242504853015112     2.771348049615499
    H               -2.644834935881412     0.760495146984888     1.903348049615499
    H               -2.747834935881412    -0.539504853015112     0.689348049615499
    H               -4.196834935881412    -0.027504853015112     1.587348049615499
    H               -3.297834935881412    -2.174504853015112     2.479348049615498
    H               -3.202354935881412    -0.921747853015112     3.749578049615499
    H               -1.727264935881412    -1.406178853015112     2.791448049615498
    C               -0.260834935881412     2.065495146984889     0.838348049615499
    C                0.714165064118588     3.187495146984888     1.190348049615499
    C                0.292165064118588     0.923495146984888    -0.036651950384501
    C                1.483165064118588     0.268495146984888     0.295348049615499
    C               -0.453834935881412     0.419495146984888    -1.098651950384501
    C                1.931165064118588    -0.832504853015112    -0.434651950384501
    C               -0.017834935881412    -0.671504853015112    -1.835651950384501
    C                1.191165064118588    -1.286504853015112    -1.532651950384501
    O                1.516165064118588    -2.389504853015112    -2.259651950384501
    H               -0.586834935881412     1.620495146984889     1.777348049615499
    H               -1.138834935881412     2.479495146984888     0.351348049615499
    H                1.537165064118588     2.758495146984888     1.763348049615499
    H                2.064165064118588     0.629495146984888     1.130348049615499
    H               -1.401834935881412     0.878495146984888    -1.350651950384501
    H                2.854165064118588    -1.325504853015111    -0.177651950384501
    H               -0.615834935881412    -1.052504853015112    -2.648651950384502
    H                2.256165064118588    -2.853504853015112    -1.813651950384501
    H                0.220375064118588     3.946084146984889     1.815418049615499
    H                1.143395064118588     3.634279146984889     0.281428049615499

}
e, wfn = energy('scf', return_wfn=True)
gdma(wfn)
dmavals = variable('DMA DISTRIBUTED MULTIPOLES')
charges = np.array(dmavals)
print(charges)
np.save('SSI-139LEU-204TYR-1-dimer.npy', np.array(charges))--------------------------------------------------------------------------

*** tstart() called on ds3
*** at Sun Apr 26 20:42:22 2020

   => Loading Basis Set <=

    Name: CC-PVDZ
    Role: ORBITAL
    Keyword: BASIS
    atoms 1-2, 9-16  entry C          line   138 file /theoryfs2/ds/metcalf/miniconda2/envs/tf2gpu/share/psi4/basis/cc-pvdz.gbs 
    atoms 3-8, 18-27 entry H          line    22 file /theoryfs2/ds/metcalf/miniconda2/envs/tf2gpu/share/psi4/basis/cc-pvdz.gbs 
    atoms 17         entry O          line   198 file /theoryfs2/ds/metcalf/miniconda2/envs/tf2gpu/share/psi4/basis/cc-pvdz.gbs 


         ---------------------------------------------------------
                                   SCF
               by Justin Turney, Rob Parrish, Andy Simmonett
                          and Daniel G. A. Smith
                              RHF Reference
                        1 Threads,    500 MiB Core
         ---------------------------------------------------------

  ==> Geometry <==

    Molecular point group: c1
    Full point group: C1

    Geometry (in Angstrom), charge = 0, multiplicity = 1:

       Center              X                  Y                   Z               Mass       
    ------------   -----------------  -----------------  -----------------  -----------------
         C           -3.120834935881    -0.184504853015     1.651348049615    12.000000000000
         C           -2.814834935881    -1.242504853015     2.771348049615    12.000000000000
         H           -2.644834935881     0.760495146985     1.903348049615     1.007825032230
         H           -2.747834935881    -0.539504853015     0.689348049615     1.007825032230
         H           -4.196834935881    -0.027504853015     1.587348049615     1.007825032230
         H           -3.297834935881    -2.174504853015     2.479348049615     1.007825032230
         H           -3.202354935881    -0.921747853015     3.749578049615     1.007825032230
         H           -1.727264935881    -1.406178853015     2.791448049615     1.007825032230
         C           -0.260834935881     2.065495146985     0.838348049615    12.000000000000
         C            0.714165064119     3.187495146985     1.190348049615    12.000000000000
         C            0.292165064119     0.923495146985    -0.036651950385    12.000000000000
         C            1.483165064119     0.268495146985     0.295348049615    12.000000000000
         C           -0.453834935881     0.419495146985    -1.098651950385    12.000000000000
         C            1.931165064119    -0.832504853015    -0.434651950385    12.000000000000
         C           -0.017834935881    -0.671504853015    -1.835651950385    12.000000000000
         C            1.191165064119    -1.286504853015    -1.532651950385    12.000000000000
         O            1.516165064119    -2.389504853015    -2.259651950385    15.994914619570
         H           -0.586834935881     1.620495146985     1.777348049615     1.007825032230
         H           -1.138834935881     2.479495146985     0.351348049615     1.007825032230
         H            1.537165064119     2.758495146985     1.763348049615     1.007825032230
         H            2.064165064119     0.629495146985     1.130348049615     1.007825032230
         H           -1.401834935881     0.878495146985    -1.350651950385     1.007825032230
         H            2.854165064119    -1.325504853015    -0.177651950385     1.007825032230
         H           -0.615834935881    -1.052504853015    -2.648651950385     1.007825032230
         H            2.256165064119    -2.853504853015    -1.813651950385     1.007825032230
         H            0.220375064119     3.946084146985     1.815418049615     1.007825032230
         H            1.143395064119     3.634279146985     0.281428049615     1.007825032230

  Running in c1 symmetry.

  Rotational constants: A =      0.03413  B =      0.02087  C =      0.01528 [cm^-1]
  Rotational constants: A =   1023.04249  B =    625.68472  C =    457.97546 [MHz]
  Nuclear repulsion =  583.069571271598420

  Charge       = 0
  Multiplicity = 1
  Electrons    = 84
  Nalpha       = 42
  Nbeta        = 42

  ==> Algorithm <==

  SCF Algorithm Type is PK.
  DIIS enabled.
  MOM disabled.
  Fractional occupation disabled.
  Guess Type is SAD.
  Energy threshold   = 1.00e-06
  Density threshold  = 1.00e-10
  Integral threshold = 0.00e+00

  ==> Primary Basis <==

  Basis Set: CC-PVDZ
    Blend: CC-PVDZ
    Number of shells: 114
    Number of basis function: 234
    Number of Cartesian functions: 245
    Spherical Harmonics?: true
    Max angular momentum: 2

  ==> Pre-Iterations <==

   -------------------------------------------------------
    Irrep   Nso     Nmo     Nalpha   Nbeta   Ndocc  Nsocc
   -------------------------------------------------------
     A        234     234       0       0       0       0
   -------------------------------------------------------
    Total     234     234      42      42      42       0
   -------------------------------------------------------

  ==> Integral Setup <==

  Using integral reordering PK algorithm.
  Sizing the integral batches needed.
  Building batch lookup table.
   Calculation information:
      Number of atoms:                  27
      Number of AO shells:             114
      Number of primitives:            322
      Number of atomic orbitals:       245
      Number of basis functions:       234

      Integral cutoff                 1.00e-12
      Number of threads:                 1

	Batch   1 pq = [       0,    9405] index = [             0,44231715] size =     44231715
	Batch   2 pq = [    9405,   13301] index = [      44231715,88464951] size =     44233236
	Batch   3 pq = [   13301,   16290] index = [      88464951,132690195] size =     44225244
	Batch   4 pq = [   16290,   18810] index = [     132690195,176917455] size =     44227260
	Batch   5 pq = [   18810,   21030] index = [     176917455,221140965] size =     44223510
	Batch   6 pq = [   21030,   23037] index = [     221140965,265363203] size =     44222238
	Batch   7 pq = [   23037,   24883] index = [     265363203,309594286] size =     44231083
	Batch   8 pq = [   24883,   26601] index = [     309594286,353819901] size =     44225615
	Batch   9 pq = [   26601,   27495] index = [     353819901,378001260] size =     24181359
  Task number: 35
  Buffer size: 11059200
  Buffer per thread: 2
  We computed 20239757 shell quartets total.
  Whereas there are 21487290 unique shell quartets.

  ==> DiskJK: Disk-Based J/K Matrices <==

    J tasked:                  Yes
    K tasked:                  Yes
    wK tasked:                  No
    Memory [MiB]:              375
    Schwarz Cutoff:          1E-12

    OpenMP threads:              1

  Minimum eigenvalue in the overlap matrix is 3.2302928744E-04.
  Using Symmetric Orthogonalization.

  SCF Guess: Superposition of Atomic Densities via on-the-fly atomic UHF.

  ==> Iterations <==

                        Total Energy        Delta E     RMS |[F,P]|

   @RHF iter SAD:  -461.58112004073803   -4.61581e+02   0.00000e+00 
   @RHF iter   1:  -462.60925395510071   -1.02813e+00   2.77873e-03 DIIS
   @RHF iter   2:  -462.84654855393353   -2.37295e-01   1.17478e-03 DIIS
   @RHF iter   3:  -462.88480713072460   -3.82586e-02   2.70903e-04 DIIS
   @RHF iter   4:  -462.88805804933190   -3.25092e-03   1.13505e-04 DIIS
   @RHF iter   5:  -462.88846799822431   -4.09949e-04   1.96691e-05 DIIS
   @RHF iter   6:  -462.88848826483542   -2.02666e-05   5.60195e-06 DIIS
   @RHF iter   7:  -462.88848983484110   -1.57001e-06   2.11226e-06 DIIS
   @RHF iter   8:  -462.88849007172900   -2.36888e-07   6.72766e-07 DIIS
   @RHF iter   9:  -462.88849010742507   -3.56961e-08   2.38497e-07 DIIS
   @RHF iter  10:  -462.88849011214876   -4.72369e-09   1.03768e-07 DIIS
   @RHF iter  11:  -462.88849011357178   -1.42302e-09   4.71227e-08 DIIS
   @RHF iter  12:  -462.88849011392824   -3.56465e-10   2.26273e-08 DIIS
   @RHF iter  13:  -462.88849011399532   -6.70752e-11   8.48114e-09 DIIS
   @RHF iter  14:  -462.88849011400589   -1.05729e-11   2.07199e-09 DIIS
   @RHF iter  15:  -462.88849011400578    1.13687e-13   7.36268e-10 DIIS
   @RHF iter  16:  -462.88849011400839   -2.61480e-12   2.85005e-10 DIIS
   @RHF iter  17:  -462.88849011400470    3.69482e-12   1.22725e-10 DIIS
   @RHF iter  18:  -462.88849011400731   -2.61480e-12   6.58117e-11 DIIS
  Energy and wave function converged.


  ==> Post-Iterations <==

    Orbital Energies [Eh]
    ---------------------

    Doubly Occupied:                                                      

       1A    -20.588364     2A    -11.299263     3A    -11.240616  
       4A    -11.236499     5A    -11.236364     6A    -11.233532  
       7A    -11.230457     8A    -11.226699     9A    -11.224036  
      10A    -11.218915    11A    -11.214621    12A     -1.400838  
      13A     -1.150162    14A     -1.054266    15A     -1.017574  
      16A     -1.004955    17A     -0.978080    18A     -0.859216  
      19A     -0.844915    20A     -0.835079    21A     -0.788574  
      22A     -0.727477    23A     -0.672693    24A     -0.640769  
      25A     -0.614200    26A     -0.600316    27A     -0.592590  
      28A     -0.591443    29A     -0.588751    30A     -0.583385  
      31A     -0.571628    32A     -0.545750    33A     -0.518056  
      34A     -0.499111    35A     -0.491406    36A     -0.485887  
      37A     -0.482002    38A     -0.475802    39A     -0.472496  
      40A     -0.462309    41A     -0.338596    42A     -0.301905  

    Virtual:                                                              

      43A      0.130228    44A      0.149929    45A      0.177542  
      46A      0.180687    47A      0.195518    48A      0.203282  
      49A      0.215807    50A      0.241531    51A      0.248018  
      52A      0.251689    53A      0.257034    54A      0.265123  
      55A      0.271826    56A      0.286311    57A      0.291036  
      58A      0.305370    59A      0.324195    60A      0.341898  
      61A      0.364953    62A      0.381632    63A      0.391103  
      64A      0.399755    65A      0.424848    66A      0.465319  
      67A      0.486517    68A      0.500845    69A      0.522398  
      70A      0.575083    71A      0.597882    72A      0.603539  
      73A      0.612651    74A      0.618315    75A      0.634381  
      76A      0.654333    77A      0.666317    78A      0.668867  
      79A      0.689508    80A      0.698906    81A      0.708769  
      82A      0.727408    83A      0.730946    84A      0.735536  
      85A      0.753372    86A      0.762795    87A      0.784905  
      88A      0.792087    89A      0.812650    90A      0.825712  
      91A      0.833748    92A      0.854087    93A      0.857101  
      94A      0.867251    95A      0.877732    96A      0.882442  
      97A      0.889434    98A      0.892241    99A      0.901986  
     100A      0.905011   101A      0.906878   102A      0.911634  
     103A      0.923349   104A      0.932917   105A      0.936393  
     106A      0.949598   107A      0.956032   108A      0.977394  
     109A      0.990561   110A      0.997454   111A      1.006655  
     112A      1.024847   113A      1.041623   114A      1.087841  
     115A      1.125710   116A      1.134856   117A      1.139167  
     118A      1.141398   119A      1.159381   120A      1.166566  
     121A      1.206000   122A      1.233468   123A      1.247351  
     124A      1.255769   125A      1.264258   126A      1.277963  
     127A      1.294877   128A      1.303275   129A      1.306653  
     130A      1.331055   131A      1.354641   132A      1.386880  
     133A      1.410889   134A      1.466468   135A      1.469488  
     136A      1.480816   137A      1.491032   138A      1.501240  
     139A      1.534294   140A      1.557036   141A      1.573111  
     142A      1.603013   143A      1.626941   144A      1.676460  
     145A      1.680795   146A      1.690326   147A      1.708252  
     148A      1.722224   149A      1.742256   150A      1.782965  
     151A      1.796056   152A      1.807864   153A      1.837469  
     154A      1.860860   155A      1.865367   156A      1.868996  
     157A      1.876250   158A      1.891220   159A      1.901278  
     160A      1.903409   161A      1.913463   162A      1.923927  
     163A      1.931518   164A      1.935321   165A      1.940043  
     166A      1.945133   167A      1.949455   168A      1.957996  
     169A      1.968332   170A      1.970884   171A      1.987310  
     172A      1.995225   173A      2.004483   174A      2.018993  
     175A      2.031410   176A      2.055293   177A      2.066931  
     178A      2.076793   179A      2.082291   180A      2.093965  
     181A      2.104512   182A      2.115942   183A      2.136174  
     184A      2.150058   185A      2.187958   186A      2.194896  
     187A      2.227386   188A      2.267912   189A      2.271367  
     190A      2.276810   191A      2.303450   192A      2.305875  
     193A      2.309322   194A      2.345283   195A      2.356812  
     196A      2.410014   197A      2.427394   198A      2.447794  
     199A      2.460075   200A      2.472571   201A      2.494178  
     202A      2.515995   203A      2.531146   204A      2.548570  
     205A      2.562972   206A      2.581763   207A      2.584594  
     208A      2.627892   209A      2.635146   210A      2.747748  
     211A      2.762852   212A      2.767228   213A      2.779321  
     214A      2.804106   215A      2.816445   216A      2.826597  
     217A      2.846622   218A      2.852601   219A      2.887169  
     220A      2.910874   221A      2.950749   222A      2.955592  
     223A      2.970074   224A      2.983642   225A      3.032638  
     226A      3.086024   227A      3.156355   228A      3.256988  
     229A      3.290850   230A      3.335384   231A      3.570362  
     232A      3.693432   233A      3.913060   234A      4.173873  

    Final Occupation by Irrep:
              A 
    DOCC [    42 ]

  @RHF Final Energy:  -462.88849011400731

   => Energetics <=

    Nuclear Repulsion Energy =            583.0695712715984200
    One-Electron Energy =               -1783.6369337733340217
    Two-Electron Energy =                 737.6788723877284610
    Total Energy =                       -462.8884901140072543

Computation Completed


Properties will be evaluated at   0.000000,   0.000000,   0.000000 [a0]

Properties computed using the SCF density matrix

  Nuclear Dipole Moment: [e a0]
     X:   -10.7594      Y:     5.9943      Z:    13.4222

  Electronic Dipole Moment: [e a0]
     X:    11.0992      Y:    -5.9999      Z:   -12.9524

  Dipole Moment: [e a0]
     X:     0.3398      Y:    -0.0056      Z:     0.4698     Total:     0.5798

  Dipole Moment: [D]
     X:     0.8637      Y:    -0.0142      Z:     1.1941     Total:     1.4738


*** tstop() called on ds3 at Sun Apr 26 20:46:15 2020
Module time:
	user time   =     173.03 seconds =       2.88 minutes
	system time =      68.87 seconds =       1.15 minutes
	total time  =        233 seconds =       3.88 minutes
Total time:
	user time   =     173.03 seconds =       2.88 minutes
	system time =      68.87 seconds =       1.15 minutes
	total time  =        233 seconds =       3.88 minutes
                                     G D M A

                                 by Anthony Stone

                           version 2.2.06, 22 June 2011

               Distributed Multipoles from Gaussian wavefunctions


Starting at 20:46:15 on 26 Apr 2020 


Using SCF density matrix from file ./SSI/SSI-139LEU-204TYR-1-dimer.test.9896.fchk


                         Distributed Multipole Analysis

Standard DMA

Positions and radii in angstrom
Multipole moments in atomic units, ea_0^k for rank k

C          x = -3.120835  y = -0.184505  z =  1.651348 angstrom
           Maximum rank =  0   Radius =  0.650 angstrom
                   Q00  =  -0.248691

C          x = -2.814835  y = -1.242505  z =  2.771348 angstrom
           Maximum rank =  0   Radius =  0.650 angstrom
                   Q00  =  -0.245869

H          x = -2.644835  y =  0.760495  z =  1.903348 angstrom
           Maximum rank =  0   Radius =  0.325 angstrom
                   Q00  =   0.079624

H          x = -2.747835  y = -0.539505  z =  0.689348 angstrom
           Maximum rank =  0   Radius =  0.325 angstrom
                   Q00  =   0.091395

H          x = -4.196835  y = -0.027505  z =  1.587348 angstrom
           Maximum rank =  0   Radius =  0.325 angstrom
                   Q00  =   0.077250

H          x = -3.297835  y = -2.174505  z =  2.479348 angstrom
           Maximum rank =  0   Radius =  0.325 angstrom
                   Q00  =   0.081688

H          x = -3.202355  y = -0.921748  z =  3.749578 angstrom
           Maximum rank =  0   Radius =  0.325 angstrom
                   Q00  =   0.082228

H          x = -1.727265  y = -1.406179  z =  2.791448 angstrom
           Maximum rank =  0   Radius =  0.325 angstrom
                   Q00  =   0.082408

C          x = -0.260835  y =  2.065495  z =  0.838348 angstrom
           Maximum rank =  0   Radius =  0.650 angstrom
                   Q00  =  -0.047016

C          x =  0.714165  y =  3.187495  z =  1.190348 angstrom
           Maximum rank =  0   Radius =  0.650 angstrom
                   Q00  =  -0.227706

C          x =  0.292165  y =  0.923495  z = -0.036652 angstrom
           Maximum rank =  0   Radius =  0.650 angstrom
                   Q00  =  -0.153430

C          x =  1.483165  y =  0.268495  z =  0.295348 angstrom
           Maximum rank =  0   Radius =  0.650 angstrom
                   Q00  =  -0.035727

C          x = -0.453835  y =  0.419495  z = -1.098652 angstrom
           Maximum rank =  0   Radius =  0.650 angstrom
                   Q00  =   0.039074

C          x =  1.931165  y = -0.832505  z = -0.434652 angstrom
           Maximum rank =  0   Radius =  0.650 angstrom
                   Q00  =  -0.192025

C          x = -0.017835  y = -0.671505  z = -1.835652 angstrom
           Maximum rank =  0   Radius =  0.650 angstrom
                   Q00  =  -0.091759

C          x =  1.191165  y = -1.286505  z = -1.532652 angstrom
           Maximum rank =  0   Radius =  0.650 angstrom
                   Q00  =   0.292829

O          x =  1.516165  y = -2.389505  z = -2.259652 angstrom
           Maximum rank =  0   Radius =  0.650 angstrom
                   Q00  =  -0.659239

H          x = -0.586835  y =  1.620495  z =  1.777348 angstrom
           Maximum rank =  0   Radius =  0.325 angstrom
                   Q00  =   0.066795

H          x = -1.138835  y =  2.479495  z =  0.351348 angstrom
           Maximum rank =  0   Radius =  0.325 angstrom
                   Q00  =   0.064955

H          x =  1.537165  y =  2.758495  z =  1.763348 angstrom
           Maximum rank =  0   Radius =  0.325 angstrom
                   Q00  =   0.077244

H          x =  2.064165  y =  0.629495  z =  1.130348 angstrom
           Maximum rank =  0   Radius =  0.325 angstrom
                   Q00  =   0.070006

H          x = -1.401835  y =  0.878495  z = -1.350652 angstrom
           Maximum rank =  0   Radius =  0.325 angstrom
                   Q00  =   0.064969

H          x =  2.854165  y = -1.325505  z = -0.177652 angstrom
           Maximum rank =  0   Radius =  0.325 angstrom
                   Q00  =   0.074029

H          x = -0.615835  y = -1.052505  z = -2.648652 angstrom
           Maximum rank =  0   Radius =  0.325 angstrom
                   Q00  =   0.078067

H          x =  2.256165  y = -2.853505  z = -1.813652 angstrom
           Maximum rank =  0   Radius =  0.325 angstrom
                   Q00  =   0.406391

H          x =  0.220375  y =  3.946084  z =  1.815418 angstrom
           Maximum rank =  0   Radius =  0.325 angstrom
                   Q00  =   0.089512

H          x =  1.143395  y =  3.634279  z =  0.281428 angstrom
           Maximum rank =  0   Radius =  0.325 angstrom
                   Q00  =   0.082998

Total multipoles referred to origin at
           x =   0.000000,  y =    0.000000,  z =    0.000000 angstrom
                   Q00  =  -0.000000

Finished at 20:46:15 on 26 Apr 2020 

  DMA results are available in the Python driver through the
	  variable('DMA DISTRIBUTED MULTIPOLES')
  and
	  variable('DMA TOTAL MULTIPOLES')
  commands.


    Psi4 stopped on: Sunday, 26 April 2020 08:46PM
    Psi4 wall time for execution: 0:03:53.43

*** Psi4 exiting successfully. Buy a developer a beer!
