
    -----------------------------------------------------------------------
          Psi4: An Open-Source Ab Initio Electronic Structure Package
                               Psi4 1.3.2 release

                         Git: Rev {HEAD} ecbda83 


    R. M. Parrish, L. A. Burns, D. G. A. Smith, A. C. Simmonett,
    A. E. DePrince III, E. G. Hohenstein, U. Bozkaya, A. Yu. Sokolov,
    R. Di Remigio, R. M. Richard, J. F. Gonthier, A. M. James,
    H. R. McAlexander, A. Kumar, M. Saitow, X. Wang, B. P. Pritchard,
    P. Verma, H. F. Schaefer III, K. Patkowski, R. A. King, E. F. Valeev,
    F. A. Evangelista, J. M. Turney, T. D. Crawford, and C. D. Sherrill,
    J. Chem. Theory Comput. 13(7) pp 3185--3197 (2017).
    (doi: 10.1021/acs.jctc.7b00174)


                         Additional Contributions by
    P. Kraus, H. Kruse, M. H. Lechner, M. C. Schieber, R. A. Shaw,
    A. Alenaizan, R. Galvelis, Z. L. Glick, S. Lehtola, and J. P. Misiewicz

    -----------------------------------------------------------------------


    Psi4 started on: Tuesday, 28 April 2020 09:24AM

    Process ID: 10450
    Host:       ds3
    PSIDATADIR: /theoryfs2/ds/metcalf/miniconda2/envs/tf2gpu/share/psi4
    Memory:     500.0 MiB
    Threads:    1
    
  ==> Input File <==

--------------------------------------------------------------------------
import numpy as np
set {scf_type pk
basis cc-pvdz
d_convergence 10
gdma_switch   0
gdma_limit    0
gdma_origin   [ 0.0,  0.0,  0.0 ]
}
molecule test {
    units Angstrom
    0 1
    --
    0 1
    C               -0.985139996234179     3.574032043178546     3.888292615234947
    C                0.507860003765821     1.640032043178546     2.847292615234947
    C                0.137860003765821     2.555032043178547     3.901292615234947
    C                1.663860003765821     0.933032043178546     3.281292615234947
    C                1.047860003765821     2.364032043178546     4.898292615234947
    C                0.611860003765821     0.374032043178546     0.793292615234947
    C                1.754860003765821    -0.302967956821454     1.249292615234947
    C               -0.016139996234179     1.346032043178546     1.580292615234947
    C                2.292860003765821    -0.032967956821454     2.498292615234947
    N                1.960860003765821     1.401032043178546     4.533292615234948
    H                0.169860003765821     0.104032043178546    -0.153707384765053
    H                2.213860003765821    -1.051967956821453     0.616292615234947
    H               -0.916139996234179     1.833032043178547     1.248292615234947
    H                3.171860003765822    -0.548967956821453     2.856292615234947
    H               -0.818139996234179     4.258032043178547     3.055292615234947
    H               -0.912139996234179     4.158032043178546     4.807292615234948
    H                1.061860003765821     2.915032043178547     5.834292615234947
    H                2.739860003765822     1.105032043178546     5.113292615234948
    H               -2.005809996234179     3.171342043178547     3.810332615234947
    C                0.853860003765821     0.200032043178546    -2.733707384765053
    C                1.766860003765821     0.412032043178546    -3.949707384765053
    C               -0.259139996234179    -0.814967956821454    -2.923707384765053
    C               -0.039139996234179    -2.179967956821454    -2.685707384765053
    C               -1.534139996234179    -0.398967956821454    -3.323707384765053
    C               -1.072139996234179    -3.111967956821454    -2.847707384765053
    C               -2.572139996234179    -1.320967956821454    -3.481707384765053
    C               -2.342139996234179    -2.677967956821453    -3.247707384765053
    O               -3.355139996234179    -3.574967956821453    -3.426707384765053
    H                1.482860003765821    -0.154967956821454    -1.918707384765053
    H                0.431860003765821     1.156032043178546    -2.420707384765053
    H                2.671860003765822     0.921032043178546    -3.620707384765053
    H                0.935860003765821    -2.517967956821454    -2.356707384765053
    H               -1.717139996234179     0.648032043178547    -3.529707384765053
    H               -0.893139996234179    -4.160967956821453    -2.661707384765053
    H               -3.553139996234179    -0.998967956821454    -3.801707384765053
    H               -3.044139996234179    -4.482967956821454    -3.340707384765053
    H                1.275990003765821     1.024862043178546    -4.720097384765053
    H                2.065600003765821    -0.559057956821453    -4.371287384765052

}
e, wfn = energy('scf', return_wfn=True)
gdma(wfn)
dmavals = variable('DMA DISTRIBUTED MULTIPOLES')
charges = np.array(dmavals)
print(charges)
np.save('SSI-006TRP-026TYR-1-dimer.npy', np.array(charges))--------------------------------------------------------------------------

*** tstart() called on ds3
*** at Tue Apr 28 09:24:30 2020

   => Loading Basis Set <=

    Name: CC-PVDZ
    Role: ORBITAL
    Keyword: BASIS
    atoms 1-9, 20-27   entry C          line   138 file /theoryfs2/ds/metcalf/miniconda2/envs/tf2gpu/share/psi4/basis/cc-pvdz.gbs 
    atoms 10           entry N          line   168 file /theoryfs2/ds/metcalf/miniconda2/envs/tf2gpu/share/psi4/basis/cc-pvdz.gbs 
    atoms 11-19, 29-38 entry H          line    22 file /theoryfs2/ds/metcalf/miniconda2/envs/tf2gpu/share/psi4/basis/cc-pvdz.gbs 
    atoms 28           entry O          line   198 file /theoryfs2/ds/metcalf/miniconda2/envs/tf2gpu/share/psi4/basis/cc-pvdz.gbs 


         ---------------------------------------------------------
                                   SCF
               by Justin Turney, Rob Parrish, Andy Simmonett
                          and Daniel G. A. Smith
                              RHF Reference
                        1 Threads,    500 MiB Core
         ---------------------------------------------------------

  ==> Geometry <==

    Molecular point group: c1
    Full point group: C1

    Geometry (in Angstrom), charge = 0, multiplicity = 1:

       Center              X                  Y                   Z               Mass       
    ------------   -----------------  -----------------  -----------------  -----------------
         C           -0.985139996234     3.574032043179     3.888292615235    12.000000000000
         C            0.507860003766     1.640032043179     2.847292615235    12.000000000000
         C            0.137860003766     2.555032043179     3.901292615235    12.000000000000
         C            1.663860003766     0.933032043179     3.281292615235    12.000000000000
         C            1.047860003766     2.364032043179     4.898292615235    12.000000000000
         C            0.611860003766     0.374032043179     0.793292615235    12.000000000000
         C            1.754860003766    -0.302967956821     1.249292615235    12.000000000000
         C           -0.016139996234     1.346032043179     1.580292615235    12.000000000000
         C            2.292860003766    -0.032967956821     2.498292615235    12.000000000000
         N            1.960860003766     1.401032043179     4.533292615235    14.003074004430
         H            0.169860003766     0.104032043179    -0.153707384765     1.007825032230
         H            2.213860003766    -1.051967956821     0.616292615235     1.007825032230
         H           -0.916139996234     1.833032043179     1.248292615235     1.007825032230
         H            3.171860003766    -0.548967956821     2.856292615235     1.007825032230
         H           -0.818139996234     4.258032043179     3.055292615235     1.007825032230
         H           -0.912139996234     4.158032043179     4.807292615235     1.007825032230
         H            1.061860003766     2.915032043179     5.834292615235     1.007825032230
         H            2.739860003766     1.105032043179     5.113292615235     1.007825032230
         H           -2.005809996234     3.171342043179     3.810332615235     1.007825032230
         C            0.853860003766     0.200032043179    -2.733707384765    12.000000000000
         C            1.766860003766     0.412032043179    -3.949707384765    12.000000000000
         C           -0.259139996234    -0.814967956821    -2.923707384765    12.000000000000
         C           -0.039139996234    -2.179967956821    -2.685707384765    12.000000000000
         C           -1.534139996234    -0.398967956821    -3.323707384765    12.000000000000
         C           -1.072139996234    -3.111967956821    -2.847707384765    12.000000000000
         C           -2.572139996234    -1.320967956821    -3.481707384765    12.000000000000
         C           -2.342139996234    -2.677967956821    -3.247707384765    12.000000000000
         O           -3.355139996234    -3.574967956821    -3.426707384765    15.994914619570
         H            1.482860003766    -0.154967956821    -1.918707384765     1.007825032230
         H            0.431860003766     1.156032043179    -2.420707384765     1.007825032230
         H            2.671860003766     0.921032043179    -3.620707384765     1.007825032230
         H            0.935860003766    -2.517967956821    -2.356707384765     1.007825032230
         H           -1.717139996234     0.648032043179    -3.529707384765     1.007825032230
         H           -0.893139996234    -4.160967956821    -2.661707384765     1.007825032230
         H           -3.553139996234    -0.998967956821    -3.801707384765     1.007825032230
         H           -3.044139996234    -4.482967956821    -3.340707384765     1.007825032230
         H            1.275990003766     1.024862043179    -4.720097384765     1.007825032230
         H            2.065600003766    -0.559057956821    -4.371287384765     1.007825032230

  Running in c1 symmetry.

  Rotational constants: A =      0.02169  B =      0.00430  C =      0.00413 [cm^-1]
  Rotational constants: A =    650.23443  B =    128.80857  C =    123.67091 [MHz]
  Nuclear repulsion = 1249.271156764016951

  Charge       = 0
  Multiplicity = 1
  Electrons    = 136
  Nalpha       = 68
  Nbeta        = 68

  ==> Algorithm <==

  SCF Algorithm Type is PK.
  DIIS enabled.
  MOM disabled.
  Fractional occupation disabled.
  Guess Type is SAD.
  Energy threshold   = 1.00e-06
  Density threshold  = 1.00e-10
  Integral threshold = 0.00e+00

  ==> Primary Basis <==

  Basis Set: CC-PVDZ
    Blend: CC-PVDZ
    Number of shells: 171
    Number of basis function: 361
    Number of Cartesian functions: 380
    Spherical Harmonics?: true
    Max angular momentum: 2

  ==> Pre-Iterations <==

   -------------------------------------------------------
    Irrep   Nso     Nmo     Nalpha   Nbeta   Ndocc  Nsocc
   -------------------------------------------------------
     A        361     361       0       0       0       0
   -------------------------------------------------------
    Total     361     361      68      68      68       0
   -------------------------------------------------------

  ==> Integral Setup <==

  Using Yoshimine PK algorithm.
  Sizing the integral batches needed.
  Building batch lookup table.
   Calculation information:
      Number of atoms:                  38
      Number of AO shells:             171
      Number of primitives:            513
      Number of atomic orbitals:       380
      Number of basis functions:       361

      Integral cutoff                 1.00e-12
      Number of threads:                 1

	Batch   1 pq = [       0,    9405] index = [             0,44231715] size =     44231715
	Batch   2 pq = [    9405,   13301] index = [      44231715,88464951] size =     44233236
	Batch   3 pq = [   13301,   16290] index = [      88464951,132690195] size =     44225244
	Batch   4 pq = [   16290,   18810] index = [     132690195,176917455] size =     44227260
	Batch   5 pq = [   18810,   21030] index = [     176917455,221140965] size =     44223510
	Batch   6 pq = [   21030,   23037] index = [     221140965,265363203] size =     44222238
	Batch   7 pq = [   23037,   24883] index = [     265363203,309594286] size =     44231083
	Batch   8 pq = [   24883,   26601] index = [     309594286,353819901] size =     44225615
	Batch   9 pq = [   26601,   28214] index = [     353819901,398029005] size =     44209104
	Batch  10 pq = [   28214,   29740] index = [     398029005,442248670] size =     44219665
	Batch  11 pq = [   29740,   31191] index = [     442248670,486454836] size =     44206166
	Batch  12 pq = [   31191,   32578] index = [     486454836,530679331] size =     44224495
	Batch  13 pq = [   32578,   33908] index = [     530679331,574893186] size =     44213855
	Batch  14 pq = [   33908,   35188] index = [     574893186,619115266] size =     44222080
	Batch  15 pq = [   35188,   36423] index = [     619115266,663335676] size =     44220410
	Batch  16 pq = [   36423,   37617] index = [     663335676,707538153] size =     44202477
	Batch  17 pq = [   37617,   38775] index = [     707538153,751769700] size =     44231547
	Batch  18 pq = [   38775,   39899] index = [     751769700,795985050] size =     44215350
	Batch  19 pq = [   39899,   40992] index = [     795985050,840192528] size =     44207478
	Batch  20 pq = [   40992,   42057] index = [     840192528,884416653] size =     44224125
	Batch  21 pq = [   42057,   43095] index = [     884416653,928611060] size =     44194407
	Batch  22 pq = [   43095,   44109] index = [     928611060,972823995] size =     44212935
	Batch  23 pq = [   44109,   45100] index = [     972823995,1017027550] size =     44203555
	Batch  24 pq = [   45100,   46070] index = [    1017027550,1061245485] size =     44217935
	Batch  25 pq = [   46070,   47020] index = [    1061245485,1105463710] size =     44218225
	Batch  26 pq = [   47020,   47951] index = [    1105463710,1149673176] size =     44209466
	Batch  27 pq = [   47951,   48864] index = [    1149673176,1193869680] size =     44196504
	Batch  28 pq = [   48864,   49761] index = [    1193869680,1238103441] size =     44233761
	Batch  29 pq = [   49761,   50642] index = [    1238103441,1282331403] size =     44227962
	Batch  30 pq = [   50642,   51508] index = [    1282331403,1326562786] size =     44231383
	Batch  31 pq = [   51508,   52359] index = [    1326562786,1370758620] size =     44195834
	Batch  32 pq = [   52359,   53197] index = [    1370758620,1414987003] size =     44228383
	Batch  33 pq = [   53197,   54022] index = [    1414987003,1459215253] size =     44228250
	Batch  34 pq = [   54022,   54834] index = [    1459215253,1503411195] size =     44195942
	Batch  35 pq = [   54834,   55634] index = [    1503411195,1547598795] size =     44187600
	Batch  36 pq = [   55634,   56423] index = [    1547598795,1591805676] size =     44206881
	Batch  37 pq = [   56423,   57201] index = [    1591805676,1636005801] size =     44200125
	Batch  38 pq = [   57201,   57969] index = [    1636005801,1680231465] size =     44225664
	Batch  39 pq = [   57969,   58727] index = [    1680231465,1724459628] size =     44228163
	Batch  40 pq = [   58727,   59475] index = [    1724459628,1768667550] size =     44207922
	Batch  41 pq = [   59475,   60214] index = [    1768667550,1812893005] size =     44225455
	Batch  42 pq = [   60214,   60944] index = [    1812893005,1857116040] size =     44223035
	Batch  43 pq = [   60944,   61665] index = [    1857116040,1901316945] size =     44200905
	Batch  44 pq = [   61665,   62378] index = [    1901316945,1945538631] size =     44221686
	Batch  45 pq = [   62378,   63083] index = [    1945538631,1989763986] size =     44225355
	Batch  46 pq = [   63083,   63780] index = [    1989763986,2033976090] size =     44212104
	Batch  47 pq = [   63780,   64469] index = [    2033976090,2078158215] size =     44182125
	Batch  48 pq = [   64469,   65151] index = [    2078158215,2122358976] size =     44200761
	Batch  49 pq = [   65151,   65341] index = [    2122358976,2134755811] size =     12396835
  ==> DiskJK: Disk-Based J/K Matrices <==

    J tasked:                  Yes
    K tasked:                  Yes
    wK tasked:                  No
    Memory [MiB]:              375
    Schwarz Cutoff:          1E-12

    OpenMP threads:              1

  Minimum eigenvalue in the overlap matrix is 2.4275170190E-04.
  Using Symmetric Orthogonalization.

  SCF Guess: Superposition of Atomic Densities via on-the-fly atomic UHF.

  ==> Iterations <==

                        Total Energy        Delta E     RMS |[F,P]|

   @RHF iter SAD:  -783.19425263929270   -7.83194e+02   0.00000e+00 
   @RHF iter   1:  -783.79575260692854   -6.01500e-01   2.11410e-03 DIIS
   @RHF iter   2:  -784.13087707253214   -3.35124e-01   9.19112e-04 DIIS
   @RHF iter   3:  -784.18700141282807   -5.61243e-02   2.47097e-04 DIIS
   @RHF iter   4:  -784.19243131468738   -5.42990e-03   1.11204e-04 DIIS
   @RHF iter   5:  -784.19335444878220   -9.23134e-04   1.60549e-05 DIIS
   @RHF iter   6:  -784.19339345030289   -3.90015e-05   7.17495e-06 DIIS
   @RHF iter   7:  -784.19340052779660   -7.07749e-06   2.75139e-06 DIIS
   @RHF iter   8:  -784.19340222494020   -1.69714e-06   1.07750e-06 DIIS
   @RHF iter   9:  -784.19340255868224   -3.33742e-07   4.74641e-07 DIIS
   @RHF iter  10:  -784.19340262759056   -6.89083e-08   2.37858e-07 DIIS
   @RHF iter  11:  -784.19340264817833   -2.05878e-08   9.76891e-08 DIIS
   @RHF iter  12:  -784.19340265162725   -3.44892e-09   3.93923e-08 DIIS
   @RHF iter  13:  -784.19340265204312   -4.15866e-10   1.39627e-08 DIIS
   @RHF iter  14:  -784.19340265208120   -3.80851e-11   4.84779e-09 DIIS
   @RHF iter  15:  -784.19340265207768    3.52429e-12   1.94486e-09 DIIS
   @RHF iter  16:  -784.19340265207381    3.86535e-12   9.47578e-10 DIIS
   @RHF iter  17:  -784.19340265208029   -6.48015e-12   4.92637e-10 DIIS
   @RHF iter  18:  -784.19340265208223   -1.93268e-12   1.84045e-10 DIIS
   @RHF iter  19:  -784.19340265209019   -7.95808e-12   8.27123e-11 DIIS
  Energy and wave function converged.


  ==> Post-Iterations <==

    Orbital Energies [Eh]
    ---------------------

    Doubly Occupied:                                                      

       1A    -20.582464     2A    -15.600333     3A    -11.299924  
       4A    -11.264463     5A    -11.263464     6A    -11.240828  
       7A    -11.238195     8A    -11.234380     9A    -11.231568  
      10A    -11.230134    11A    -11.229685    12A    -11.228766  
      13A    -11.228612    14A    -11.228327    15A    -11.225817  
      16A    -11.220265    17A    -11.219617    18A    -11.219270  
      19A    -11.218011    20A     -1.397728    21A     -1.293213  
      22A     -1.146229    23A     -1.124187    24A     -1.068986  
      25A     -1.052436    26A     -1.014081    27A     -0.993361  
      28A     -0.985407    29A     -0.973541    30A     -0.928902  
      31A     -0.858665    32A     -0.840307    33A     -0.837811  
      34A     -0.800994    35A     -0.788964    36A     -0.751304  
      37A     -0.729009    38A     -0.717650    39A     -0.666913  
      40A     -0.662219    41A     -0.645797    42A     -0.637744  
      43A     -0.611179    44A     -0.599479    45A     -0.592851  
      46A     -0.588948    47A     -0.587354    48A     -0.583697  
      49A     -0.581499    50A     -0.566500    51A     -0.563666  
      52A     -0.550783    53A     -0.545066    54A     -0.535725  
      55A     -0.527805    56A     -0.517105    57A     -0.494683  
      58A     -0.490167    59A     -0.477173    60A     -0.469690  
      61A     -0.468554    62A     -0.461571    63A     -0.456686  
      64A     -0.371031    65A     -0.335900    66A     -0.299772  
      67A     -0.291298    68A     -0.274999  

    Virtual:                                                              

      69A      0.126294    70A      0.129761    71A      0.151835  
      72A      0.170010    73A      0.175572    74A      0.181625  
      75A      0.182377    76A      0.191087    77A      0.201978  
      78A      0.213669    79A      0.218363    80A      0.230323  
      81A      0.232390    82A      0.236382    83A      0.250036  
      84A      0.257204    85A      0.263997    86A      0.281570  
      87A      0.282374    88A      0.286959    89A      0.292114  
      90A      0.306548    91A      0.309706    92A      0.325748  
      93A      0.356835    94A      0.376314    95A      0.378078  
      96A      0.385791    97A      0.404373    98A      0.412634  
      99A      0.427797   100A      0.436032   101A      0.446412  
     102A      0.472924   103A      0.475057   104A      0.482742  
     105A      0.486958   106A      0.495641   107A      0.505871  
     108A      0.515218   109A      0.524131   110A      0.594556  
     111A      0.597094   112A      0.612517   113A      0.614108  
     114A      0.631133   115A      0.634971   116A      0.643702  
     117A      0.656001   118A      0.658239   119A      0.670291  
     120A      0.680465   121A      0.697478   122A      0.702232  
     123A      0.705403   124A      0.712338   125A      0.718648  
     126A      0.722077   127A      0.727759   128A      0.732242  
     129A      0.736562   130A      0.740080   131A      0.744715  
     132A      0.750025   133A      0.751824   134A      0.755097  
     135A      0.762008   136A      0.768930   137A      0.775326  
     138A      0.788888   139A      0.791437   140A      0.798391  
     141A      0.809773   142A      0.820619   143A      0.826749  
     144A      0.830896   145A      0.847678   146A      0.858744  
     147A      0.863446   148A      0.865683   149A      0.875239  
     150A      0.877039   151A      0.883813   152A      0.885479  
     153A      0.891777   154A      0.894105   155A      0.901074  
     156A      0.908440   157A      0.913234   158A      0.925560  
     159A      0.935890   160A      0.936638   161A      0.948841  
     162A      0.950544   163A      0.952782   164A      0.960212  
     165A      0.965169   166A      0.970003   167A      0.974262  
     168A      0.994642   169A      1.006174   170A      1.013303  
     171A      1.017414   172A      1.025733   173A      1.063750  
     174A      1.067441   175A      1.077404   176A      1.091145  
     177A      1.098858   178A      1.118788   179A      1.124751  
     180A      1.142019   181A      1.149503   182A      1.152418  
     183A      1.160806   184A      1.167334   185A      1.170222  
     186A      1.189204   187A      1.208376   188A      1.223251  
     189A      1.225446   190A      1.230351   191A      1.234805  
     192A      1.242118   193A      1.247733   194A      1.251527  
     195A      1.268456   196A      1.277553   197A      1.286715  
     198A      1.290918   199A      1.296268   200A      1.301717  
     201A      1.302833   202A      1.306707   203A      1.328866  
     204A      1.339732   205A      1.348974   206A      1.355847  
     207A      1.360877   208A      1.383538   209A      1.388875  
     210A      1.410826   211A      1.424440   212A      1.435510  
     213A      1.455760   214A      1.492758   215A      1.497345  
     216A      1.520571   217A      1.543959   218A      1.549861  
     219A      1.579992   220A      1.592986   221A      1.609110  
     222A      1.621410   223A      1.631666   224A      1.634717  
     225A      1.647839   226A      1.662064   227A      1.673140  
     228A      1.684851   229A      1.694018   230A      1.698896  
     231A      1.726991   232A      1.735585   233A      1.741808  
     234A      1.758261   235A      1.765698   236A      1.783046  
     237A      1.787062   238A      1.796777   239A      1.809548  
     240A      1.819203   241A      1.827526   242A      1.844663  
     243A      1.859514   244A      1.871051   245A      1.879168  
     246A      1.883876   247A      1.889609   248A      1.892842  
     249A      1.897078   250A      1.906603   251A      1.911093  
     252A      1.913953   253A      1.915609   254A      1.922623  
     255A      1.929451   256A      1.931327   257A      1.943664  
     258A      1.948325   259A      1.953189   260A      1.960716  
     261A      1.971075   262A      1.975428   263A      1.993073  
     264A      1.997251   265A      2.001306   266A      2.006922  
     267A      2.011368   268A      2.018355   269A      2.035092  
     270A      2.043944   271A      2.047073   272A      2.062047  
     273A      2.066238   274A      2.080791   275A      2.085384  
     276A      2.086341   277A      2.090646   278A      2.097967  
     279A      2.101517   280A      2.111224   281A      2.120835  
     282A      2.130877   283A      2.141500   284A      2.145428  
     285A      2.155417   286A      2.175372   287A      2.186407  
     288A      2.191072   289A      2.199879   290A      2.226229  
     291A      2.231653   292A      2.240639   293A      2.262765  
     294A      2.268218   295A      2.291153   296A      2.299215  
     297A      2.310387   298A      2.313395   299A      2.327313  
     300A      2.338774   301A      2.345771   302A      2.365038  
     303A      2.373592   304A      2.406376   305A      2.424027  
     306A      2.441029   307A      2.455351   308A      2.462387  
     309A      2.463619   310A      2.476325   311A      2.485460  
     312A      2.504203   313A      2.522305   314A      2.530687  
     315A      2.542247   316A      2.573994   317A      2.578983  
     318A      2.598703   319A      2.629054   320A      2.634851  
     321A      2.637500   322A      2.650072   323A      2.676505  
     324A      2.694020   325A      2.750302   326A      2.766770  
     327A      2.772261   328A      2.783912   329A      2.790002  
     330A      2.795308   331A      2.803045   332A      2.813163  
     333A      2.828550   334A      2.865724   335A      2.872911  
     336A      2.875382   337A      2.877162   338A      2.910681  
     339A      2.925958   340A      2.955092   341A      2.963109  
     342A      2.984894   343A      3.006908   344A      3.033233  
     345A      3.051820   346A      3.073494   347A      3.079019  
     348A      3.118156   349A      3.160773   350A      3.199064  
     351A      3.251912   352A      3.274757   353A      3.299325  
     354A      3.345598   355A      3.374065   356A      3.568172  
     357A      3.667287   358A      3.733711   359A      3.941097  
     360A      3.952632   361A      4.186066  

    Final Occupation by Irrep:
              A 
    DOCC [    68 ]

  @RHF Final Energy:  -784.19340265209019

   => Energetics <=

    Nuclear Repulsion Energy =           1249.2711567640169505
    One-Electron Energy =               -3545.0036163814556858
    Two-Electron Energy =                1511.5390569653484363
    Total Energy =                       -784.1934026520900716

Computation Completed


Properties will be evaluated at   0.000000,   0.000000,   0.000000 [a0]

Properties computed using the SCF density matrix

  Nuclear Dipole Moment: [e a0]
     X:     4.0670      Y:     6.3710      Z:    -5.2367

  Electronic Dipole Moment: [e a0]
     X:    -3.2174      Y:    -6.5659      Z:     6.0125

  Dipole Moment: [e a0]
     X:     0.8496      Y:    -0.1948      Z:     0.7758     Total:     1.1669

  Dipole Moment: [D]
     X:     2.1594      Y:    -0.4952      Z:     1.9719     Total:     2.9659


*** tstop() called on ds3 at Tue Apr 28 11:21:59 2020
Module time:
	user time   =     499.61 seconds =       8.33 minutes
	system time =     566.19 seconds =       9.44 minutes
	total time  =       7049 seconds =     117.48 minutes
Total time:
	user time   =     499.61 seconds =       8.33 minutes
	system time =     566.19 seconds =       9.44 minutes
	total time  =       7049 seconds =     117.48 minutes
                                     G D M A

                                 by Anthony Stone

                           version 2.2.06, 22 June 2011

               Distributed Multipoles from Gaussian wavefunctions


Starting at 11:21:59 on 28 Apr 2020 


Using SCF density matrix from file ./SSI/SSI-006TRP-026TYR-1-dimer.test.10450.fchk


                         Distributed Multipole Analysis

Standard DMA

Positions and radii in angstrom
Multipole moments in atomic units, ea_0^k for rank k

C          x = -0.985140  y =  3.574032  z =  3.888293 angstrom
           Maximum rank =  0   Radius =  0.650 angstrom
                   Q00  =  -0.206269

C          x =  0.507860  y =  1.640032  z =  2.847293 angstrom
           Maximum rank =  0   Radius =  0.650 angstrom
                   Q00  =  -0.060758

C          x =  0.137860  y =  2.555032  z =  3.901293 angstrom
           Maximum rank =  0   Radius =  0.650 angstrom
                   Q00  =  -0.125212

C          x =  1.663860  y =  0.933032  z =  3.281293 angstrom
           Maximum rank =  0   Radius =  0.650 angstrom
                   Q00  =   0.295839

C          x =  1.047860  y =  2.364032  z =  4.898293 angstrom
           Maximum rank =  0   Radius =  0.650 angstrom
                   Q00  =   0.072616

C          x =  0.611860  y =  0.374032  z =  0.793293 angstrom
           Maximum rank =  0   Radius =  0.650 angstrom
                   Q00  =  -0.088974

C          x =  1.754860  y = -0.302968  z =  1.249293 angstrom
           Maximum rank =  0   Radius =  0.650 angstrom
                   Q00  =  -0.080842

C          x = -0.016140  y =  1.346032  z =  1.580293 angstrom
           Maximum rank =  0   Radius =  0.650 angstrom
                   Q00  =  -0.086484

C          x =  2.292860  y = -0.032968  z =  2.498293 angstrom
           Maximum rank =  0   Radius =  0.650 angstrom
                   Q00  =  -0.120157

N          x =  1.960860  y =  1.401032  z =  4.533293 angstrom
           Maximum rank =  0   Radius =  0.650 angstrom
                   Q00  =  -0.496929

H          x =  0.169860  y =  0.104032  z = -0.153707 angstrom
           Maximum rank =  0   Radius =  0.325 angstrom
                   Q00  =   0.068632

H          x =  2.213860  y = -1.051968  z =  0.616293 angstrom
           Maximum rank =  0   Radius =  0.325 angstrom
                   Q00  =   0.059376

H          x = -0.916140  y =  1.833032  z =  1.248293 angstrom
           Maximum rank =  0   Radius =  0.325 angstrom
                   Q00  =   0.069937

H          x =  3.171860  y = -0.548968  z =  2.856293 angstrom
           Maximum rank =  0   Radius =  0.325 angstrom
                   Q00  =   0.072324

H          x = -0.818140  y =  4.258032  z =  3.055293 angstrom
           Maximum rank =  0   Radius =  0.325 angstrom
                   Q00  =   0.098738

H          x = -0.912140  y =  4.158032  z =  4.807293 angstrom
           Maximum rank =  0   Radius =  0.325 angstrom
                   Q00  =   0.101753

H          x =  1.061860  y =  2.915032  z =  5.834293 angstrom
           Maximum rank =  0   Radius =  0.325 angstrom
                   Q00  =   0.101419

H          x =  2.739860  y =  1.105032  z =  5.113293 angstrom
           Maximum rank =  0   Radius =  0.325 angstrom
                   Q00  =   0.216013

H          x = -2.005810  y =  3.171342  z =  3.810333 angstrom
           Maximum rank =  0   Radius =  0.325 angstrom
                   Q00  =   0.100154

C          x =  0.853860  y =  0.200032  z = -2.733707 angstrom
           Maximum rank =  0   Radius =  0.650 angstrom
                   Q00  =  -0.025631

C          x =  1.766860  y =  0.412032  z = -3.949707 angstrom
           Maximum rank =  0   Radius =  0.650 angstrom
                   Q00  =  -0.229701

C          x = -0.259140  y = -0.814968  z = -2.923707 angstrom
           Maximum rank =  0   Radius =  0.650 angstrom
                   Q00  =  -0.159392

C          x = -0.039140  y = -2.179968  z = -2.685707 angstrom
           Maximum rank =  0   Radius =  0.650 angstrom
                   Q00  =  -0.026985

C          x = -1.534140  y = -0.398968  z = -3.323707 angstrom
           Maximum rank =  0   Radius =  0.650 angstrom
                   Q00  =   0.039632

C          x = -1.072140  y = -3.111968  z = -2.847707 angstrom
           Maximum rank =  0   Radius =  0.650 angstrom
                   Q00  =  -0.197223

C          x = -2.572140  y = -1.320968  z = -3.481707 angstrom
           Maximum rank =  0   Radius =  0.650 angstrom
                   Q00  =  -0.113416

C          x = -2.342140  y = -2.677968  z = -3.247707 angstrom
           Maximum rank =  0   Radius =  0.650 angstrom
                   Q00  =   0.324114

O          x = -3.355140  y = -3.574968  z = -3.426707 angstrom
           Maximum rank =  0   Radius =  0.650 angstrom
                   Q00  =  -0.671854

H          x =  1.482860  y = -0.154968  z = -1.918707 angstrom
           Maximum rank =  0   Radius =  0.325 angstrom
                   Q00  =   0.059506

H          x =  0.431860  y =  1.156032  z = -2.420707 angstrom
           Maximum rank =  0   Radius =  0.325 angstrom
                   Q00  =   0.068271

H          x =  2.671860  y =  0.921032  z = -3.620707 angstrom
           Maximum rank =  0   Radius =  0.325 angstrom
                   Q00  =   0.082889

H          x =  0.935860  y = -2.517968  z = -2.356707 angstrom
           Maximum rank =  0   Radius =  0.325 angstrom
                   Q00  =   0.069386

H          x = -1.717140  y =  0.648032  z = -3.529707 angstrom
           Maximum rank =  0   Radius =  0.325 angstrom
                   Q00  =   0.063812

H          x = -0.893140  y = -4.160968  z = -2.661707 angstrom
           Maximum rank =  0   Radius =  0.325 angstrom
                   Q00  =   0.073506

H          x = -3.553140  y = -0.998968  z = -3.801707 angstrom
           Maximum rank =  0   Radius =  0.325 angstrom
                   Q00  =   0.080890

H          x = -3.044140  y = -4.482968  z = -3.340707 angstrom
           Maximum rank =  0   Radius =  0.325 angstrom
                   Q00  =   0.406428

H          x =  1.275990  y =  1.024862  z = -4.720097 angstrom
           Maximum rank =  0   Radius =  0.325 angstrom
                   Q00  =   0.081980

H          x =  2.065600  y = -0.559058  z = -4.371287 angstrom
           Maximum rank =  0   Radius =  0.325 angstrom
                   Q00  =   0.082613

Total multipoles referred to origin at
           x =   0.000000,  y =    0.000000,  z =    0.000000 angstrom
                   Q00  =  -0.000000

Finished at 11:21:59 on 28 Apr 2020 

  DMA results are available in the Python driver through the
	  variable('DMA DISTRIBUTED MULTIPOLES')
  and
	  variable('DMA TOTAL MULTIPOLES')
  commands.


    Psi4 stopped on: Tuesday, 28 April 2020 11:21AM
    Psi4 wall time for execution: 1:57:29.17

*** Psi4 exiting successfully. Buy a developer a beer!
