
    -----------------------------------------------------------------------
          Psi4: An Open-Source Ab Initio Electronic Structure Package
                               Psi4 1.3.2 release

                         Git: Rev {HEAD} ecbda83 


    R. M. Parrish, L. A. Burns, D. G. A. Smith, A. C. Simmonett,
    A. E. DePrince III, E. G. Hohenstein, U. Bozkaya, A. Yu. Sokolov,
    R. Di Remigio, R. M. Richard, J. F. Gonthier, A. M. James,
    H. R. McAlexander, A. Kumar, M. Saitow, X. Wang, B. P. Pritchard,
    P. Verma, H. F. Schaefer III, K. Patkowski, R. A. King, E. F. Valeev,
    F. A. Evangelista, J. M. Turney, T. D. Crawford, and C. D. Sherrill,
    J. Chem. Theory Comput. 13(7) pp 3185--3197 (2017).
    (doi: 10.1021/acs.jctc.7b00174)


                         Additional Contributions by
    P. Kraus, H. Kruse, M. H. Lechner, M. C. Schieber, R. A. Shaw,
    A. Alenaizan, R. Galvelis, Z. L. Glick, S. Lehtola, and J. P. Misiewicz

    -----------------------------------------------------------------------


    Psi4 started on: Sunday, 26 April 2020 06:15PM

    Process ID: 384
    Host:       ds3
    PSIDATADIR: /theoryfs2/ds/metcalf/miniconda2/envs/tf2gpu/share/psi4
    Memory:     500.0 MiB
    Threads:    1
    
  ==> Input File <==

--------------------------------------------------------------------------
import numpy as np
set {scf_type pk
basis cc-pvdz
d_convergence 10
gdma_switch   0
gdma_limit    0
gdma_origin   [ 0.0,  0.0,  0.0 ]
}
molecule test {
    units Angstrom
    0 1
    --
    0 1
    C               -2.314800923967399     0.984955362033307     2.553023600189865
    C               -0.442800923967400     0.839955362033307    -0.783976399810134
    C               -0.424800923967400    -0.533044637966693    -1.032976399810134
    C               -1.071800923967400     1.334955362033307     0.373023600189866
    C               -1.671800923967400     0.463955362033307     1.290023600189866
    C               -1.022800923967400    -1.405044637966693    -0.122976399810134
    C               -1.641800923967400    -0.909044637966693     1.026023600189866
    O                0.167199076032600    -1.021044637966693    -2.171976399810135
    H                0.026199076032600     1.516955362033307    -1.482976399810134
    H               -1.074800923967400     2.397955362033307     0.561023600189866
    H               -1.015800923967400    -2.468044637966693    -0.313976399810134
    H                0.115199076032600    -1.982044637966693    -2.227976399810134
    H               -1.817800923967400     1.904955362033307     2.845023600189865
    H               -2.138800923967399     0.261955362033307     3.349023600189866
    H               -2.102800923967400    -1.599044637966693     1.721023600189866
    H               -3.395029923967400     1.183700362033307     2.492973600189865
    C                3.334199076032600     0.851955362033307    -0.349976399810134
    C                4.114199076032600    -0.466044637966693    -0.448976399810134
    H                2.668199076032601     0.964955362033307    -1.205976399810134
    H                2.734199076032600     0.836955362033307     0.558023600189866
    H                4.014199076032600     1.700955362033307    -0.283976399810134
    H                4.853199076032600    -0.465044637966693     0.353023600189866
    H                4.631139076032601    -0.565565637966693    -1.414826399810134
    H                3.449209076032600    -1.326782637966693    -0.284886399810134

}
e, wfn = energy('scf', return_wfn=True)
gdma(wfn)
dmavals = variable('DMA DISTRIBUTED MULTIPOLES')
charges = np.array(dmavals)
print(charges)
np.save('SSI-040TYR-076VAL-1-dimer.npy', np.array(charges))--------------------------------------------------------------------------

*** tstart() called on ds3
*** at Sun Apr 26 18:15:28 2020

   => Loading Basis Set <=

    Name: CC-PVDZ
    Role: ORBITAL
    Keyword: BASIS
    atoms 1-7, 17-18  entry C          line   138 file /theoryfs2/ds/metcalf/miniconda2/envs/tf2gpu/share/psi4/basis/cc-pvdz.gbs 
    atoms 8           entry O          line   198 file /theoryfs2/ds/metcalf/miniconda2/envs/tf2gpu/share/psi4/basis/cc-pvdz.gbs 
    atoms 9-16, 19-24 entry H          line    22 file /theoryfs2/ds/metcalf/miniconda2/envs/tf2gpu/share/psi4/basis/cc-pvdz.gbs 


         ---------------------------------------------------------
                                   SCF
               by Justin Turney, Rob Parrish, Andy Simmonett
                          and Daniel G. A. Smith
                              RHF Reference
                        1 Threads,    500 MiB Core
         ---------------------------------------------------------

  ==> Geometry <==

    Molecular point group: c1
    Full point group: C1

    Geometry (in Angstrom), charge = 0, multiplicity = 1:

       Center              X                  Y                   Z               Mass       
    ------------   -----------------  -----------------  -----------------  -----------------
         C           -2.314800923967     0.984955362033     2.553023600190    12.000000000000
         C           -0.442800923967     0.839955362033    -0.783976399810    12.000000000000
         C           -0.424800923967    -0.533044637967    -1.032976399810    12.000000000000
         C           -1.071800923967     1.334955362033     0.373023600190    12.000000000000
         C           -1.671800923967     0.463955362033     1.290023600190    12.000000000000
         C           -1.022800923967    -1.405044637967    -0.122976399810    12.000000000000
         C           -1.641800923967    -0.909044637967     1.026023600190    12.000000000000
         O            0.167199076033    -1.021044637967    -2.171976399810    15.994914619570
         H            0.026199076033     1.516955362033    -1.482976399810     1.007825032230
         H           -1.074800923967     2.397955362033     0.561023600190     1.007825032230
         H           -1.015800923967    -2.468044637967    -0.313976399810     1.007825032230
         H            0.115199076033    -1.982044637967    -2.227976399810     1.007825032230
         H           -1.817800923967     1.904955362033     2.845023600190     1.007825032230
         H           -2.138800923967     0.261955362033     3.349023600190     1.007825032230
         H           -2.102800923967    -1.599044637967     1.721023600190     1.007825032230
         H           -3.395029923967     1.183700362033     2.492973600190     1.007825032230
         C            3.334199076033     0.851955362033    -0.349976399810    12.000000000000
         C            4.114199076033    -0.466044637967    -0.448976399810    12.000000000000
         H            2.668199076033     0.964955362033    -1.205976399810     1.007825032230
         H            2.734199076033     0.836955362033     0.558023600190     1.007825032230
         H            4.014199076033     1.700955362033    -0.283976399810     1.007825032230
         H            4.853199076033    -0.465044637967     0.353023600190     1.007825032230
         H            4.631139076033    -0.565565637967    -1.414826399810     1.007825032230
         H            3.449209076033    -1.326782637967    -0.284886399810     1.007825032230

  Running in c1 symmetry.

  Rotational constants: A =      0.05411  B =      0.02152  C =      0.01834 [cm^-1]
  Rotational constants: A =   1622.19143  B =    645.26561  C =    549.71924 [MHz]
  Nuclear repulsion =  493.448199004804508

  Charge       = 0
  Multiplicity = 1
  Electrons    = 76
  Nalpha       = 38
  Nbeta        = 38

  ==> Algorithm <==

  SCF Algorithm Type is PK.
  DIIS enabled.
  MOM disabled.
  Fractional occupation disabled.
  Guess Type is SAD.
  Energy threshold   = 1.00e-06
  Density threshold  = 1.00e-10
  Integral threshold = 0.00e+00

  ==> Primary Basis <==

  Basis Set: CC-PVDZ
    Blend: CC-PVDZ
    Number of shells: 102
    Number of basis function: 210
    Number of Cartesian functions: 220
    Spherical Harmonics?: true
    Max angular momentum: 2

  ==> Pre-Iterations <==

   -------------------------------------------------------
    Irrep   Nso     Nmo     Nalpha   Nbeta   Ndocc  Nsocc
   -------------------------------------------------------
     A        210     210       0       0       0       0
   -------------------------------------------------------
    Total     210     210      38      38      38       0
   -------------------------------------------------------

  ==> Integral Setup <==

  Using integral reordering PK algorithm.
  Sizing the integral batches needed.
  Building batch lookup table.
   Calculation information:
      Number of atoms:                  24
      Number of AO shells:             102
      Number of primitives:            290
      Number of atomic orbitals:       220
      Number of basis functions:       210

      Integral cutoff                 1.00e-12
      Number of threads:                 1

	Batch   1 pq = [       0,    9405] index = [             0,44231715] size =     44231715
	Batch   2 pq = [    9405,   13301] index = [      44231715,88464951] size =     44233236
	Batch   3 pq = [   13301,   16290] index = [      88464951,132690195] size =     44225244
	Batch   4 pq = [   16290,   18810] index = [     132690195,176917455] size =     44227260
	Batch   5 pq = [   18810,   21030] index = [     176917455,221140965] size =     44223510
	Batch   6 pq = [   21030,   22155] index = [     221140965,245433090] size =     24292125
  Task number: 23
  Buffer size: 11059200
  Buffer per thread: 2
  We computed 11569198 shell quartets total.
  Whereas there are 13799631 unique shell quartets.

  ==> DiskJK: Disk-Based J/K Matrices <==

    J tasked:                  Yes
    K tasked:                  Yes
    wK tasked:                  No
    Memory [MiB]:              375
    Schwarz Cutoff:          1E-12

    OpenMP threads:              1

  Minimum eigenvalue in the overlap matrix is 3.3382383022E-04.
  Using Symmetric Orthogonalization.

  SCF Guess: Superposition of Atomic Densities via on-the-fly atomic UHF.

  ==> Iterations <==

                        Total Energy        Delta E     RMS |[F,P]|

   @RHF iter SAD:  -422.56995725207480   -4.22570e+02   0.00000e+00 
   @RHF iter   1:  -423.60334069850978   -1.03338e+00   2.96788e-03 DIIS
   @RHF iter   2:  -423.81825352756994   -2.14913e-01   1.25543e-03 DIIS
   @RHF iter   3:  -423.85296132213006   -3.47078e-02   2.82499e-04 DIIS
   @RHF iter   4:  -423.85581181710091   -2.85049e-03   1.16053e-04 DIIS
   @RHF iter   5:  -423.85615619561310   -3.44379e-04   2.08721e-05 DIIS
   @RHF iter   6:  -423.85617365895899   -1.74633e-05   6.49279e-06 DIIS
   @RHF iter   7:  -423.85617529297247   -1.63401e-06   2.07152e-06 DIIS
   @RHF iter   8:  -423.85617550584533   -2.12873e-07   7.68901e-07 DIIS
   @RHF iter   9:  -423.85617553647239   -3.06271e-08   2.71149e-07 DIIS
   @RHF iter  10:  -423.85617554100338   -4.53099e-09   1.02650e-07 DIIS
   @RHF iter  11:  -423.85617554213144   -1.12806e-09   4.88156e-08 DIIS
   @RHF iter  12:  -423.85617554240912   -2.77680e-10   2.63623e-08 DIIS
   @RHF iter  13:  -423.85617554248421   -7.50902e-11   8.44546e-09 DIIS
   @RHF iter  14:  -423.85617554249006   -5.85487e-12   2.17032e-09 DIIS
   @RHF iter  15:  -423.85617554248978    2.84217e-13   7.13255e-10 DIIS
   @RHF iter  16:  -423.85617554249143   -1.64846e-12   2.17514e-10 DIIS
   @RHF iter  17:  -423.85617554249183   -3.97904e-13   8.63568e-11 DIIS
  Energy and wave function converged.


  ==> Post-Iterations <==

    Orbital Energies [Eh]
    ---------------------

    Doubly Occupied:                                                      

       1A    -20.584068     2A    -11.301480     3A    -11.240883  
       4A    -11.240506     5A    -11.236059     6A    -11.235253  
       7A    -11.233393     8A    -11.228297     9A    -11.212890  
      10A    -11.207926    11A     -1.395434    12A     -1.148001  
      13A     -1.037025    14A     -1.015354    15A     -1.008393  
      16A     -0.926945    17A     -0.843608    18A     -0.829378  
      19A     -0.801313    20A     -0.730577    21A     -0.666939  
      22A     -0.641727    23A     -0.606948    24A     -0.591640  
      25A     -0.588553    26A     -0.585068    27A     -0.581893  
      28A     -0.570301    29A     -0.566071    30A     -0.526646  
      31A     -0.498783    32A     -0.492387    33A     -0.485855  
      34A     -0.478400    35A     -0.476539    36A     -0.465659  
      37A     -0.336777    38A     -0.303056  

    Virtual:                                                              

      39A      0.127807    40A      0.153342    41A      0.172073  
      42A      0.186759    43A      0.198049    44A      0.213181  
      45A      0.222436    46A      0.244760    47A      0.252199  
      48A      0.261109    49A      0.262426    50A      0.277623  
      51A      0.282737    52A      0.286994    53A      0.296753  
      54A      0.330952    55A      0.368342    56A      0.374215  
      57A      0.399334    58A      0.431560    59A      0.454858  
      60A      0.480782    61A      0.494119    62A      0.501382  
      63A      0.582358    64A      0.603215    65A      0.607807  
      66A      0.610005    67A      0.636103    68A      0.652389  
      69A      0.657867    70A      0.667730    71A      0.682968  
      72A      0.692527    73A      0.700669    74A      0.719478  
      75A      0.729218    76A      0.735224    77A      0.764217  
      78A      0.765393    79A      0.776407    80A      0.788619  
      81A      0.816798    82A      0.840273    83A      0.843803  
      84A      0.853166    85A      0.872127    86A      0.875817  
      87A      0.881642    88A      0.890886    89A      0.894729  
      90A      0.900895    91A      0.906404    92A      0.916839  
      93A      0.919937    94A      0.926085    95A      0.932861  
      96A      0.944077    97A      0.958001    98A      0.960475  
      99A      0.993839   100A      1.008261   101A      1.020983  
     102A      1.056905   103A      1.120784   104A      1.126155  
     105A      1.139372   106A      1.143921   107A      1.146387  
     108A      1.163264   109A      1.194850   110A      1.238010  
     111A      1.244817   112A      1.249048   113A      1.270549  
     114A      1.291034   115A      1.296738   116A      1.305671  
     117A      1.308849   118A      1.353276   119A      1.358734  
     120A      1.380620   121A      1.477526   122A      1.480665  
     123A      1.490372   124A      1.504254   125A      1.522077  
     126A      1.544289   127A      1.576955   128A      1.609208  
     129A      1.628856   130A      1.687747   131A      1.689780  
     132A      1.700325   133A      1.708734   134A      1.726640  
     135A      1.752833   136A      1.779284   137A      1.801254  
     138A      1.802280   139A      1.869409   140A      1.874434  
     141A      1.876613   142A      1.886126   143A      1.893083  
     144A      1.899421   145A      1.903371   146A      1.916869  
     147A      1.919019   148A      1.938995   149A      1.945816  
     150A      1.949442   151A      1.956287   152A      1.960132  
     153A      1.970266   154A      1.973185   155A      1.980967  
     156A      1.992493   157A      2.035362   158A      2.042035  
     159A      2.051443   160A      2.061498   161A      2.064511  
     162A      2.115070   163A      2.128597   164A      2.139188  
     165A      2.147281   166A      2.155381   167A      2.195327  
     168A      2.226632   169A      2.256156   170A      2.271859  
     171A      2.300792   172A      2.307018   173A      2.314459  
     174A      2.320007   175A      2.376264   176A      2.421757  
     177A      2.448645   178A      2.450634   179A      2.468773  
     180A      2.472589   181A      2.483174   182A      2.536370  
     183A      2.544185   184A      2.570195   185A      2.590806  
     186A      2.593317   187A      2.634516   188A      2.744058  
     189A      2.767255   190A      2.769242   191A      2.784686  
     192A      2.800573   193A      2.805130   194A      2.851093  
     195A      2.856742   196A      2.861144   197A      2.898884  
     198A      2.947835   199A      2.961586   200A      2.967048  
     201A      2.995718   202A      3.072731   203A      3.103592  
     204A      3.242606   205A      3.270897   206A      3.341508  
     207A      3.561386   208A      3.656117   209A      3.957151  
     210A      4.182714  

    Final Occupation by Irrep:
              A 
    DOCC [    38 ]

  @RHF Final Energy:  -423.85617554249183

   => Energetics <=

    Nuclear Repulsion Energy =            493.4481990048045077
    One-Electron Energy =               -1552.7686912691569887
    Two-Electron Energy =                 635.4643167218605413
    Total Energy =                       -423.8561755424918829

Computation Completed


Properties will be evaluated at   0.000000,   0.000000,   0.000000 [a0]

Properties computed using the SCF density matrix

  Nuclear Dipole Moment: [e a0]
     X:    10.2628      Y:     2.2093      Z:     4.3633

  Electronic Dipole Moment: [e a0]
     X:   -10.5292      Y:    -2.6306      Z:    -4.0324

  Dipole Moment: [e a0]
     X:    -0.2664      Y:    -0.4213      Z:     0.3309     Total:     0.5983

  Dipole Moment: [D]
     X:    -0.6771      Y:    -1.0709      Z:     0.8411     Total:     1.5208


*** tstop() called on ds3 at Sun Apr 26 18:18:09 2020
Module time:
	user time   =      85.51 seconds =       1.43 minutes
	system time =      35.56 seconds =       0.59 minutes
	total time  =        161 seconds =       2.68 minutes
Total time:
	user time   =      85.51 seconds =       1.43 minutes
	system time =      35.56 seconds =       0.59 minutes
	total time  =        161 seconds =       2.68 minutes
                                     G D M A

                                 by Anthony Stone

                           version 2.2.06, 22 June 2011

               Distributed Multipoles from Gaussian wavefunctions


Starting at 18:18:9 on 26 Apr 2020  


Using SCF density matrix from file ./SSI/SSI-040TYR-076VAL-1-dimer.test.384.fchk


                         Distributed Multipole Analysis

Standard DMA

Positions and radii in angstrom
Multipole moments in atomic units, ea_0^k for rank k

C          x = -2.314801  y =  0.984955  z =  2.553024 angstrom
           Maximum rank =  0   Radius =  0.650 angstrom
                   Q00  =  -0.200996

C          x = -0.442801  y =  0.839955  z = -0.783976 angstrom
           Maximum rank =  0   Radius =  0.650 angstrom
                   Q00  =  -0.125921

C          x = -0.424801  y = -0.533045  z = -1.032976 angstrom
           Maximum rank =  0   Radius =  0.650 angstrom
                   Q00  =   0.336415

C          x = -1.071801  y =  1.334955  z =  0.373024 angstrom
           Maximum rank =  0   Radius =  0.650 angstrom
                   Q00  =  -0.054789

C          x = -1.671801  y =  0.463955  z =  1.290024 angstrom
           Maximum rank =  0   Radius =  0.650 angstrom
                   Q00  =  -0.136147

C          x = -1.022801  y = -1.405045  z = -0.122976 angstrom
           Maximum rank =  0   Radius =  0.650 angstrom
                   Q00  =  -0.155930

C          x = -1.641801  y = -0.909045  z =  1.026024 angstrom
           Maximum rank =  0   Radius =  0.650 angstrom
                   Q00  =   0.027958

O          x =  0.167199  y = -1.021045  z = -2.171976 angstrom
           Maximum rank =  0   Radius =  0.650 angstrom
                   Q00  =  -0.683696

H          x =  0.026199  y =  1.516955  z = -1.482976 angstrom
           Maximum rank =  0   Radius =  0.325 angstrom
                   Q00  =   0.085213

H          x = -1.074801  y =  2.397955  z =  0.561024 angstrom
           Maximum rank =  0   Radius =  0.325 angstrom
                   Q00  =   0.066556

H          x = -1.015801  y = -2.468045  z = -0.313976 angstrom
           Maximum rank =  0   Radius =  0.325 angstrom
                   Q00  =   0.071530

H          x =  0.115199  y = -1.982045  z = -2.227976 angstrom
           Maximum rank =  0   Radius =  0.325 angstrom
                   Q00  =   0.408349

H          x = -1.817801  y =  1.904955  z =  2.845024 angstrom
           Maximum rank =  0   Radius =  0.325 angstrom
                   Q00  =   0.097432

H          x = -2.138801  y =  0.261955  z =  3.349024 angstrom
           Maximum rank =  0   Radius =  0.325 angstrom
                   Q00  =   0.095267

H          x = -2.102801  y = -1.599045  z =  1.721024 angstrom
           Maximum rank =  0   Radius =  0.325 angstrom
                   Q00  =   0.069192

H          x = -3.395030  y =  1.183700  z =  2.492974 angstrom
           Maximum rank =  0   Radius =  0.325 angstrom
                   Q00  =   0.100995

C          x =  3.334199  y =  0.851955  z = -0.349976 angstrom
           Maximum rank =  0   Radius =  0.650 angstrom
                   Q00  =  -0.235120

C          x =  4.114199  y = -0.466045  z = -0.448976 angstrom
           Maximum rank =  0   Radius =  0.650 angstrom
                   Q00  =  -0.235809

H          x =  2.668199  y =  0.964955  z = -1.205976 angstrom
           Maximum rank =  0   Radius =  0.325 angstrom
                   Q00  =   0.083735

H          x =  2.734199  y =  0.836955  z =  0.558024 angstrom
           Maximum rank =  0   Radius =  0.325 angstrom
                   Q00  =   0.082508

H          x =  4.014199  y =  1.700955  z = -0.283976 angstrom
           Maximum rank =  0   Radius =  0.325 angstrom
                   Q00  =   0.073767

H          x =  4.853199  y = -0.465045  z =  0.353024 angstrom
           Maximum rank =  0   Radius =  0.325 angstrom
                   Q00  =   0.072446

H          x =  4.631139  y = -0.565566  z = -1.414826 angstrom
           Maximum rank =  0   Radius =  0.325 angstrom
                   Q00  =   0.078849

H          x =  3.449209  y = -1.326783  z = -0.284886 angstrom
           Maximum rank =  0   Radius =  0.325 angstrom
                   Q00  =   0.078199

Total multipoles referred to origin at
           x =   0.000000,  y =    0.000000,  z =    0.000000 angstrom
                   Q00  =  -0.000000

Finished at 18:18:9 on 26 Apr 2020  

  DMA results are available in the Python driver through the
	  variable('DMA DISTRIBUTED MULTIPOLES')
  and
	  variable('DMA TOTAL MULTIPOLES')
  commands.


    Psi4 stopped on: Sunday, 26 April 2020 06:18PM
    Psi4 wall time for execution: 0:02:41.73

*** Psi4 exiting successfully. Buy a developer a beer!
