
    -----------------------------------------------------------------------
          Psi4: An Open-Source Ab Initio Electronic Structure Package
                               Psi4 1.3.2 release

                         Git: Rev {HEAD} ecbda83 


    R. M. Parrish, L. A. Burns, D. G. A. Smith, A. C. Simmonett,
    A. E. DePrince III, E. G. Hohenstein, U. Bozkaya, A. Yu. Sokolov,
    R. Di Remigio, R. M. Richard, J. F. Gonthier, A. M. James,
    H. R. McAlexander, A. Kumar, M. Saitow, X. Wang, B. P. Pritchard,
    P. Verma, H. F. Schaefer III, K. Patkowski, R. A. King, E. F. Valeev,
    F. A. Evangelista, J. M. Turney, T. D. Crawford, and C. D. Sherrill,
    J. Chem. Theory Comput. 13(7) pp 3185--3197 (2017).
    (doi: 10.1021/acs.jctc.7b00174)


                         Additional Contributions by
    P. Kraus, H. Kruse, M. H. Lechner, M. C. Schieber, R. A. Shaw,
    A. Alenaizan, R. Galvelis, Z. L. Glick, S. Lehtola, and J. P. Misiewicz

    -----------------------------------------------------------------------


    Psi4 started on: Sunday, 26 April 2020 11:25PM

    Process ID: 31391
    Host:       ds3
    PSIDATADIR: /theoryfs2/ds/metcalf/miniconda2/envs/tf2gpu/share/psi4
    Memory:     500.0 MiB
    Threads:    1
    
  ==> Input File <==

--------------------------------------------------------------------------
import numpy as np
set {scf_type pk
basis cc-pvdz
d_convergence 10
gdma_switch   0
gdma_limit    0
gdma_origin   [ 0.0,  0.0,  0.0 ]
}
molecule test {
    units Angstrom
    1 1
    --
    1 1
    C               -1.154341369229966     2.125791117627995    -2.585675711644916
    C               -1.501341369229966    -0.529208882372005     0.110324288355084
    C               -0.793341369229965     0.037791117627995    -0.989675711644916
    C               -1.504341369229965     1.218791117627996    -1.410675711644916
    C               -2.569341369229965     1.328791117627995    -0.562675711644916
    C                0.088658630770035    -2.293208882372005     0.277324288355084
    C               -1.063341369229966    -1.683208882372005     0.754324288355084
    C                0.786658630770035    -1.777208882372005    -0.829675711644916
    C                0.339658630770034    -0.635208882372005    -1.480675711644916
    N               -2.566341369229965     0.294791117627995     0.360324288355084
    H                0.455658630770035    -3.187208882372005     0.767324288355084
    H               -1.600341369229966    -2.084208882372005     1.603324288355084
    H                1.678658630770034    -2.284208882372005    -1.168675711644916
    H                0.879658630770035    -0.235208882372005    -2.327675711644916
    H               -3.258341369229965     0.177791117627995     1.093324288355084
    H               -3.319341369229965     2.094791117627996    -0.593675711644916
    H               -0.093341369229965     2.016791117627995    -2.802675711644916
    H               -1.333341369229966     3.161791117627995    -2.295675711644916
    H               -1.714021369229965     1.907938517627995    -3.507249711644916
    C                2.428658630770035     0.096791117627995     1.921324288355084
    C                3.787658630770035    -0.503208882372005     1.599324288355084
    N                2.457658630770035     1.589791117627996     1.984324288355084
    H                1.707658630770035    -0.240208882372005     1.167324288355083
    H                2.096658630770034    -0.300208882372005     2.887324288355084
    H                3.748658630770035    -1.555208882372004     1.851324288355084
    H                4.552658630770035    -0.050208882372005     2.234324288355083
    H                2.853658630770035     2.006791117627996     1.142324288355084
    H                1.523658630770035     1.960791117627995     2.122324288355084
    H                3.022658630770035     1.904791117627995     2.766324288355084
    H                4.058688630770035    -0.363762882372005     0.542394888355084

}
e, wfn = energy('scf', return_wfn=True)
gdma(wfn)
dmavals = variable('DMA DISTRIBUTED MULTIPOLES')
charges = np.array(dmavals)
print(charges)
np.save('SSI-100TRP-103LYS-1-dimer.npy', np.array(charges))--------------------------------------------------------------------------

*** tstart() called on ds3
*** at Sun Apr 26 23:25:18 2020

   => Loading Basis Set <=

    Name: CC-PVDZ
    Role: ORBITAL
    Keyword: BASIS
    atoms 1-9, 20-21   entry C          line   138 file /theoryfs2/ds/metcalf/miniconda2/envs/tf2gpu/share/psi4/basis/cc-pvdz.gbs 
    atoms 10, 22       entry N          line   168 file /theoryfs2/ds/metcalf/miniconda2/envs/tf2gpu/share/psi4/basis/cc-pvdz.gbs 
    atoms 11-19, 23-30 entry H          line    22 file /theoryfs2/ds/metcalf/miniconda2/envs/tf2gpu/share/psi4/basis/cc-pvdz.gbs 


         ---------------------------------------------------------
                                   SCF
               by Justin Turney, Rob Parrish, Andy Simmonett
                          and Daniel G. A. Smith
                              RHF Reference
                        1 Threads,    500 MiB Core
         ---------------------------------------------------------

  ==> Geometry <==

    Molecular point group: c1
    Full point group: C1

    Geometry (in Angstrom), charge = 1, multiplicity = 1:

       Center              X                  Y                   Z               Mass       
    ------------   -----------------  -----------------  -----------------  -----------------
         C           -1.154341369230     2.125791117628    -2.585675711645    12.000000000000
         C           -1.501341369230    -0.529208882372     0.110324288355    12.000000000000
         C           -0.793341369230     0.037791117628    -0.989675711645    12.000000000000
         C           -1.504341369230     1.218791117628    -1.410675711645    12.000000000000
         C           -2.569341369230     1.328791117628    -0.562675711645    12.000000000000
         C            0.088658630770    -2.293208882372     0.277324288355    12.000000000000
         C           -1.063341369230    -1.683208882372     0.754324288355    12.000000000000
         C            0.786658630770    -1.777208882372    -0.829675711645    12.000000000000
         C            0.339658630770    -0.635208882372    -1.480675711645    12.000000000000
         N           -2.566341369230     0.294791117628     0.360324288355    14.003074004430
         H            0.455658630770    -3.187208882372     0.767324288355     1.007825032230
         H           -1.600341369230    -2.084208882372     1.603324288355     1.007825032230
         H            1.678658630770    -2.284208882372    -1.168675711645     1.007825032230
         H            0.879658630770    -0.235208882372    -2.327675711645     1.007825032230
         H           -3.258341369230     0.177791117628     1.093324288355     1.007825032230
         H           -3.319341369230     2.094791117628    -0.593675711645     1.007825032230
         H           -0.093341369230     2.016791117628    -2.802675711645     1.007825032230
         H           -1.333341369230     3.161791117628    -2.295675711645     1.007825032230
         H           -1.714021369230     1.907938517628    -3.507249711645     1.007825032230
         C            2.428658630770     0.096791117628     1.921324288355    12.000000000000
         C            3.787658630770    -0.503208882372     1.599324288355    12.000000000000
         N            2.457658630770     1.589791117628     1.984324288355    14.003074004430
         H            1.707658630770    -0.240208882372     1.167324288355     1.007825032230
         H            2.096658630770    -0.300208882372     2.887324288355     1.007825032230
         H            3.748658630770    -1.555208882372     1.851324288355     1.007825032230
         H            4.552658630770    -0.050208882372     2.234324288355     1.007825032230
         H            2.853658630770     2.006791117628     1.142324288355     1.007825032230
         H            1.523658630770     1.960791117628     2.122324288355     1.007825032230
         H            3.022658630770     1.904791117628     2.766324288355     1.007825032230
         H            4.058688630770    -0.363762882372     0.542394888355     1.007825032230

  Running in c1 symmetry.

  Rotational constants: A =      0.03275  B =      0.01552  C =      0.01389 [cm^-1]
  Rotational constants: A =    981.89201  B =    465.37518  C =    416.44581 [MHz]
  Nuclear repulsion =  771.035936185779519

  Charge       = 1
  Multiplicity = 1
  Electrons    = 96
  Nalpha       = 48
  Nbeta        = 48

  ==> Algorithm <==

  SCF Algorithm Type is PK.
  DIIS enabled.
  MOM disabled.
  Fractional occupation disabled.
  Guess Type is SAD.
  Energy threshold   = 1.00e-06
  Density threshold  = 1.00e-10
  Integral threshold = 0.00e+00

  ==> Primary Basis <==

  Basis Set: CC-PVDZ
    Blend: CC-PVDZ
    Number of shells: 129
    Number of basis function: 267
    Number of Cartesian functions: 280
    Spherical Harmonics?: true
    Max angular momentum: 2

  ==> Pre-Iterations <==

   -------------------------------------------------------
    Irrep   Nso     Nmo     Nalpha   Nbeta   Ndocc  Nsocc
   -------------------------------------------------------
     A        267     267       0       0       0       0
   -------------------------------------------------------
    Total     267     267      48      48      48       0
   -------------------------------------------------------

  ==> Integral Setup <==

  Using integral reordering PK algorithm.
  Sizing the integral batches needed.
  Building batch lookup table.
   Calculation information:
      Number of atoms:                  30
      Number of AO shells:             129
      Number of primitives:            371
      Number of atomic orbitals:       280
      Number of basis functions:       267

      Integral cutoff                 1.00e-12
      Number of threads:                 1

	Batch   1 pq = [       0,    9405] index = [             0,44231715] size =     44231715
	Batch   2 pq = [    9405,   13301] index = [      44231715,88464951] size =     44233236
	Batch   3 pq = [   13301,   16290] index = [      88464951,132690195] size =     44225244
	Batch   4 pq = [   16290,   18810] index = [     132690195,176917455] size =     44227260
	Batch   5 pq = [   18810,   21030] index = [     176917455,221140965] size =     44223510
	Batch   6 pq = [   21030,   23037] index = [     221140965,265363203] size =     44222238
	Batch   7 pq = [   23037,   24883] index = [     265363203,309594286] size =     44231083
	Batch   8 pq = [   24883,   26601] index = [     309594286,353819901] size =     44225615
	Batch   9 pq = [   26601,   28214] index = [     353819901,398029005] size =     44209104
	Batch  10 pq = [   28214,   29740] index = [     398029005,442248670] size =     44219665
	Batch  11 pq = [   29740,   31191] index = [     442248670,486454836] size =     44206166
	Batch  12 pq = [   31191,   32578] index = [     486454836,530679331] size =     44224495
	Batch  13 pq = [   32578,   33908] index = [     530679331,574893186] size =     44213855
	Batch  14 pq = [   33908,   35188] index = [     574893186,619115266] size =     44222080
	Batch  15 pq = [   35188,   35778] index = [     619115266,640050531] size =     20935265
  Task number: 58
  Buffer size: 11059200
  Buffer per thread: 2
  We computed 35706452 shell quartets total.
  Whereas there are 35158305 unique shell quartets.
     1.56 percent of shell quartets recomputed by reordering.

  ==> DiskJK: Disk-Based J/K Matrices <==

    J tasked:                  Yes
    K tasked:                  Yes
    wK tasked:                  No
    Memory [MiB]:              375
    Schwarz Cutoff:          1E-12

    OpenMP threads:              1

  Minimum eigenvalue in the overlap matrix is 2.5122471356E-04.
  Using Symmetric Orthogonalization.

  SCF Guess: Superposition of Atomic Densities via on-the-fly atomic UHF.

  ==> Iterations <==

                        Total Energy        Delta E     RMS |[F,P]|

   @RHF iter SAD:  -534.74839622806292   -5.34748e+02   0.00000e+00 
   @RHF iter   1:  -534.89627481309412   -1.47879e-01   2.35264e-03 DIIS
   @RHF iter   2:  -535.13840781000840   -2.42133e-01   9.55040e-04 DIIS
   @RHF iter   3:  -535.17335163339044   -3.49438e-02   3.05633e-04 DIIS
   @RHF iter   4:  -535.17776692391840   -4.41529e-03   1.23926e-04 DIIS
   @RHF iter   5:  -535.17838156592882   -6.14642e-04   1.99151e-05 DIIS
   @RHF iter   6:  -535.17841357706357   -3.20111e-05   8.42869e-06 DIIS
   @RHF iter   7:  -535.17841897461187   -5.39755e-06   3.31673e-06 DIIS
   @RHF iter   8:  -535.17842034354817   -1.36894e-06   1.23266e-06 DIIS
   @RHF iter   9:  -535.17842060264218   -2.59094e-07   5.62510e-07 DIIS
   @RHF iter  10:  -535.17842065578236   -5.31402e-08   2.67609e-07 DIIS
   @RHF iter  11:  -535.17842067051197   -1.47296e-08   9.79885e-08 DIIS
   @RHF iter  12:  -535.17842067269703   -2.18506e-09   3.94288e-08 DIIS
   @RHF iter  13:  -535.17842067291224   -2.15209e-10   1.60478e-08 DIIS
   @RHF iter  14:  -535.17842067293520   -2.29647e-11   5.62387e-09 DIIS
   @RHF iter  15:  -535.17842067293418    1.02318e-12   2.13516e-09 DIIS
   @RHF iter  16:  -535.17842067293770   -3.52429e-12   9.52370e-10 DIIS
   @RHF iter  17:  -535.17842067294748   -9.77707e-12   4.90871e-10 DIIS
   @RHF iter  18:  -535.17842067294100    6.48015e-12   2.00999e-10 DIIS
   @RHF iter  19:  -535.17842067294623   -5.22959e-12   6.28572e-11 DIIS
  Energy and wave function converged.


  ==> Post-Iterations <==

    Orbital Energies [Eh]
    ---------------------

    Doubly Occupied:                                                      

       1A    -15.892256     2A    -15.701979     3A    -11.461485  
       4A    -11.391948     5A    -11.369774     6A    -11.362683  
       7A    -11.337630     8A    -11.336800     9A    -11.335103  
      10A    -11.328242    11A    -11.327983    12A    -11.320473  
      13A    -11.319622    14A     -1.508711    15A     -1.392334  
      16A     -1.233029    17A     -1.206452    18A     -1.169566  
      19A     -1.101156    20A     -1.086971    21A     -1.041405  
      22A     -1.026375    23A     -0.964072    24A     -0.955538  
      25A     -0.941956    26A     -0.906247    27A     -0.853340  
      28A     -0.846418    29A     -0.819839    30A     -0.781775  
      31A     -0.761331    32A     -0.746094    33A     -0.708799  
      34A     -0.703155    35A     -0.694103    36A     -0.691161  
      37A     -0.686504    38A     -0.670590    39A     -0.665353  
      40A     -0.644421    41A     -0.631449    42A     -0.626800  
      43A     -0.596551    44A     -0.572870    45A     -0.565671  
      46A     -0.477588    47A     -0.401178    48A     -0.377567  

    Virtual:                                                              

      49A     -0.037916    50A      0.018258    51A      0.027684  
      52A      0.031601    53A      0.049419    54A      0.059471  
      55A      0.090665    56A      0.092471    57A      0.100221  
      58A      0.111444    59A      0.113061    60A      0.122412  
      61A      0.126368    62A      0.143858    63A      0.147376  
      64A      0.156999    65A      0.171195    66A      0.177295  
      67A      0.186362    68A      0.206606    69A      0.215750  
      70A      0.221243    71A      0.275629    72A      0.279627  
      73A      0.301949    74A      0.320030    75A      0.339673  
      76A      0.367088    77A      0.378480    78A      0.387070  
      79A      0.394559    80A      0.410571    81A      0.414929  
      82A      0.430888    83A      0.447507    84A      0.463381  
      85A      0.498531    86A      0.523570    87A      0.539042  
      88A      0.545423    89A      0.559787    90A      0.583320  
      91A      0.596115    92A      0.607311    93A      0.610850  
      94A      0.616930    95A      0.626184    96A      0.633997  
      97A      0.637732    98A      0.639824    99A      0.648328  
     100A      0.658643   101A      0.669461   102A      0.675472  
     103A      0.684418   104A      0.687018   105A      0.688960  
     106A      0.698554   107A      0.720453   108A      0.725348  
     109A      0.738504   110A      0.749217   111A      0.752020  
     112A      0.767399   113A      0.775583   114A      0.777930  
     115A      0.785700   116A      0.792234   117A      0.803353  
     118A      0.808708   119A      0.813170   120A      0.825248  
     121A      0.843540   122A      0.851319   123A      0.855539  
     124A      0.859780   125A      0.866844   126A      0.881792  
     127A      0.909992   128A      0.925464   129A      0.935358  
     130A      0.946143   131A      0.951152   132A      0.976374  
     133A      1.000005   134A      1.027869   135A      1.032521  
     136A      1.039813   137A      1.048611   138A      1.062268  
     139A      1.110705   140A      1.113295   141A      1.122699  
     142A      1.126013   143A      1.146699   144A      1.169130  
     145A      1.180090   146A      1.190658   147A      1.199085  
     148A      1.218865   149A      1.224683   150A      1.231672  
     151A      1.257474   152A      1.264401   153A      1.292212  
     154A      1.311239   155A      1.325022   156A      1.347261  
     157A      1.407420   158A      1.411041   159A      1.445111  
     160A      1.464017   161A      1.472600   162A      1.493645  
     163A      1.498035   164A      1.517248   165A      1.530697  
     166A      1.538868   167A      1.554743   168A      1.589850  
     169A      1.603676   170A      1.623367   171A      1.632747  
     172A      1.644379   173A      1.657009   174A      1.674629  
     175A      1.679476   176A      1.695628   177A      1.712943  
     178A      1.720287   179A      1.733447   180A      1.752926  
     181A      1.758813   182A      1.767394   183A      1.778476  
     184A      1.785972   185A      1.793271   186A      1.799105  
     187A      1.802745   188A      1.809698   189A      1.818589  
     190A      1.825915   191A      1.840052   192A      1.855051  
     193A      1.858707   194A      1.871525   195A      1.888632  
     196A      1.890146   197A      1.896505   198A      1.910110  
     199A      1.917105   200A      1.933251   201A      1.951039  
     202A      1.966182   203A      1.969246   204A      1.972753  
     205A      1.986809   206A      1.996187   207A      2.006049  
     208A      2.016836   209A      2.020499   210A      2.039855  
     211A      2.053945   212A      2.060538   213A      2.074656  
     214A      2.075396   215A      2.123861   216A      2.138568  
     217A      2.166081   218A      2.169280   219A      2.178015  
     220A      2.185433   221A      2.203583   222A      2.207294  
     223A      2.234898   224A      2.247185   225A      2.290055  
     226A      2.293121   227A      2.309936   228A      2.331467  
     229A      2.344075   230A      2.360337   231A      2.396502  
     232A      2.434828   233A      2.448801   234A      2.483835  
     235A      2.495204   236A      2.523781   237A      2.535022  
     238A      2.547780   239A      2.570487   240A      2.573208  
     241A      2.612161   242A      2.612897   243A      2.638604  
     244A      2.669798   245A      2.675362   246A      2.685149  
     247A      2.695089   248A      2.698896   249A      2.727650  
     250A      2.747638   251A      2.759954   252A      2.775437  
     253A      2.804571   254A      2.822826   255A      2.869779  
     256A      2.900796   257A      2.921125   258A      2.948321  
     259A      2.960407   260A      3.010651   261A      3.093736  
     262A      3.107602   263A      3.120594   264A      3.186985  
     265A      3.259565   266A      3.632005   267A      3.833392  

    Final Occupation by Irrep:
              A 
    DOCC [    48 ]

  @RHF Final Energy:  -535.17842067294623

   => Energetics <=

    Nuclear Repulsion Energy =            771.0359361857795193
    One-Electron Energy =               -2241.3440181407363525
    Two-Electron Energy =                 935.1296612820106020
    Total Energy =                       -535.1784206729462312

Computation Completed


Properties will be evaluated at   0.000000,   0.000000,   0.000000 [a0]

Properties computed using the SCF density matrix

  Nuclear Dipole Moment: [e a0]
     X:    14.3057      Y:     4.6172      Z:     5.1324

  Electronic Dipole Moment: [e a0]
     X:   -10.7801      Y:    -2.0606      Z:    -1.4603

  Dipole Moment: [e a0]
     X:     3.5256      Y:     2.5566      Z:     3.6721     Total:     5.6965

  Dipole Moment: [D]
     X:     8.9611      Y:     6.4982      Z:     9.3335     Total:    14.4791


*** tstop() called on ds3 at Sun Apr 26 23:35:34 2020
Module time:
	user time   =     268.74 seconds =       4.48 minutes
	system time =     133.56 seconds =       2.23 minutes
	total time  =        616 seconds =      10.27 minutes
Total time:
	user time   =     268.74 seconds =       4.48 minutes
	system time =     133.56 seconds =       2.23 minutes
	total time  =        616 seconds =      10.27 minutes
                                     G D M A

                                 by Anthony Stone

                           version 2.2.06, 22 June 2011

               Distributed Multipoles from Gaussian wavefunctions


Starting at 23:35:34 on 26 Apr 2020 


Using SCF density matrix from file ./SSI/SSI-100TRP-103LYS-1-dimer.test.31391.fchk


                         Distributed Multipole Analysis

Standard DMA

Positions and radii in angstrom
Multipole moments in atomic units, ea_0^k for rank k

C          x = -1.154341  y =  2.125791  z = -2.585676 angstrom
           Maximum rank =  0   Radius =  0.650 angstrom
                   Q00  =  -0.211873

C          x = -1.501341  y = -0.529209  z =  0.110324 angstrom
           Maximum rank =  0   Radius =  0.650 angstrom
                   Q00  =   0.243471

C          x = -0.793341  y =  0.037791  z = -0.989676 angstrom
           Maximum rank =  0   Radius =  0.650 angstrom
                   Q00  =  -0.084109

C          x = -1.504341  y =  1.218791  z = -1.410676 angstrom
           Maximum rank =  0   Radius =  0.650 angstrom
                   Q00  =  -0.130225

C          x = -2.569341  y =  1.328791  z = -0.562676 angstrom
           Maximum rank =  0   Radius =  0.650 angstrom
                   Q00  =   0.088984

C          x =  0.088659  y = -2.293209  z =  0.277324 angstrom
           Maximum rank =  0   Radius =  0.650 angstrom
                   Q00  =  -0.025255

C          x = -1.063341  y = -1.683209  z =  0.754324 angstrom
           Maximum rank =  0   Radius =  0.650 angstrom
                   Q00  =  -0.119576

C          x =  0.786659  y = -1.777209  z = -0.829676 angstrom
           Maximum rank =  0   Radius =  0.650 angstrom
                   Q00  =  -0.134239

C          x =  0.339659  y = -0.635209  z = -1.480676 angstrom
           Maximum rank =  0   Radius =  0.650 angstrom
                   Q00  =  -0.100710

N          x = -2.566341  y =  0.294791  z =  0.360324 angstrom
           Maximum rank =  0   Radius =  0.650 angstrom
                   Q00  =  -0.512222

H          x =  0.455659  y = -3.187209  z =  0.767324 angstrom
           Maximum rank =  0   Radius =  0.325 angstrom
                   Q00  =   0.075174

H          x = -1.600341  y = -2.084209  z =  1.603324 angstrom
           Maximum rank =  0   Radius =  0.325 angstrom
                   Q00  =   0.087985

H          x =  1.678659  y = -2.284209  z = -1.168676 angstrom
           Maximum rank =  0   Radius =  0.325 angstrom
                   Q00  =   0.070205

H          x =  0.879659  y = -0.235209  z = -2.327676 angstrom
           Maximum rank =  0   Radius =  0.325 angstrom
                   Q00  =   0.075483

H          x = -3.258341  y =  0.177791  z =  1.093324 angstrom
           Maximum rank =  0   Radius =  0.325 angstrom
                   Q00  =   0.232463

H          x = -3.319341  y =  2.094791  z = -0.593676 angstrom
           Maximum rank =  0   Radius =  0.325 angstrom
                   Q00  =   0.113081

H          x = -0.093341  y =  2.016791  z = -2.802676 angstrom
           Maximum rank =  0   Radius =  0.325 angstrom
                   Q00  =   0.095370

H          x = -1.333341  y =  3.161791  z = -2.295676 angstrom
           Maximum rank =  0   Radius =  0.325 angstrom
                   Q00  =   0.108581

H          x = -1.714021  y =  1.907939  z = -3.507250 angstrom
           Maximum rank =  0   Radius =  0.325 angstrom
                   Q00  =   0.125773

C          x =  2.428659  y =  0.096791  z =  1.921324 angstrom
           Maximum rank =  0   Radius =  0.650 angstrom
                   Q00  =  -0.036386

C          x =  3.787659  y = -0.503209  z =  1.599324 angstrom
           Maximum rank =  0   Radius =  0.650 angstrom
                   Q00  =  -0.235700

N          x =  2.457659  y =  1.589791  z =  1.984324 angstrom
           Maximum rank =  0   Radius =  0.650 angstrom
                   Q00  =  -0.143348

H          x =  1.707659  y = -0.240209  z =  1.167324 angstrom
           Maximum rank =  0   Radius =  0.325 angstrom
                   Q00  =   0.169790

H          x =  2.096659  y = -0.300209  z =  2.887324 angstrom
           Maximum rank =  0   Radius =  0.325 angstrom
                   Q00  =   0.122600

H          x =  3.748659  y = -1.555209  z =  1.851324 angstrom
           Maximum rank =  0   Radius =  0.325 angstrom
                   Q00  =   0.148725

H          x =  4.552659  y = -0.050209  z =  2.234324 angstrom
           Maximum rank =  0   Radius =  0.325 angstrom
                   Q00  =   0.091448

H          x =  2.853659  y =  2.006791  z =  1.142324 angstrom
           Maximum rank =  0   Radius =  0.325 angstrom
                   Q00  =   0.260325

H          x =  1.523659  y =  1.960791  z =  2.122324 angstrom
           Maximum rank =  0   Radius =  0.325 angstrom
                   Q00  =   0.260032

H          x =  3.022659  y =  1.904791  z =  2.766324 angstrom
           Maximum rank =  0   Radius =  0.325 angstrom
                   Q00  =   0.249104

H          x =  4.058689  y = -0.363763  z =  0.542395 angstrom
           Maximum rank =  0   Radius =  0.325 angstrom
                   Q00  =   0.115048

Total multipoles referred to origin at
           x =   0.000000,  y =    0.000000,  z =    0.000000 angstrom
                   Q00  =   1.000000

Finished at 23:35:35 on 26 Apr 2020 

  DMA results are available in the Python driver through the
	  variable('DMA DISTRIBUTED MULTIPOLES')
  and
	  variable('DMA TOTAL MULTIPOLES')
  commands.


    Psi4 stopped on: Sunday, 26 April 2020 11:35PM
    Psi4 wall time for execution: 0:10:16.83

*** Psi4 exiting successfully. Buy a developer a beer!
