
    -----------------------------------------------------------------------
          Psi4: An Open-Source Ab Initio Electronic Structure Package
                               Psi4 1.3.2 release

                         Git: Rev {HEAD} ecbda83 


    R. M. Parrish, L. A. Burns, D. G. A. Smith, A. C. Simmonett,
    A. E. DePrince III, E. G. Hohenstein, U. Bozkaya, A. Yu. Sokolov,
    R. Di Remigio, R. M. Richard, J. F. Gonthier, A. M. James,
    H. R. McAlexander, A. Kumar, M. Saitow, X. Wang, B. P. Pritchard,
    P. Verma, H. F. Schaefer III, K. Patkowski, R. A. King, E. F. Valeev,
    F. A. Evangelista, J. M. Turney, T. D. Crawford, and C. D. Sherrill,
    J. Chem. Theory Comput. 13(7) pp 3185--3197 (2017).
    (doi: 10.1021/acs.jctc.7b00174)


                         Additional Contributions by
    P. Kraus, H. Kruse, M. H. Lechner, M. C. Schieber, R. A. Shaw,
    A. Alenaizan, R. Galvelis, Z. L. Glick, S. Lehtola, and J. P. Misiewicz

    -----------------------------------------------------------------------


    Psi4 started on: Monday, 27 April 2020 04:09PM

    Process ID: 16889
    Host:       ds3
    PSIDATADIR: /theoryfs2/ds/metcalf/miniconda2/envs/tf2gpu/share/psi4
    Memory:     500.0 MiB
    Threads:    1
    
  ==> Input File <==

--------------------------------------------------------------------------
import numpy as np
set {scf_type pk
basis cc-pvdz
d_convergence 10
gdma_switch   0
gdma_limit    0
gdma_origin   [ 0.0,  0.0,  0.0 ]
}
molecule test {
    units Angstrom
    0 1
    --
    0 1
    C               -2.095256408769623     2.941914987423350     0.186586867384215
    C               -1.279256408769622     1.088914987423349    -1.418413132615784
    C               -1.052256408769623     2.264914987423350    -0.652413132615785
    C               -0.056256408769623     0.707914987423349    -2.025413132615784
    C                0.270743591230377     2.553914987423350    -0.787413132615785
    C               -2.413256408769623     0.298914987423349    -1.636413132615784
    C                0.054743591230377    -0.405085012576651    -2.848413132615784
    C               -2.308256408769623    -0.823085012576651    -2.456413132615785
    C               -1.091256408769623    -1.161085012576651    -3.067413132615785
    N                0.869743591230377     1.629914987423349    -1.622413132615785
    H               -3.340256408769623     0.546914987423349    -1.148413132615784
    H               -2.132256408769623     2.348914987423349     1.082586867384215
    H               -3.051256408769623     2.842914987423349    -0.328413132615785
    H                0.797743591230378     3.360914987423349    -0.299413132615785
    H                1.877743591230377     1.551914987423349    -1.715413132615784
    H                0.994743591230377    -0.673085012576651    -3.302413132615785
    H               -3.176256408769623    -1.446085012576651    -2.619413132615784
    H               -1.038256408769622    -2.042085012576651    -3.688413132615785
    H               -1.920266408769623     3.995439987423349     0.450146867384215
    C                3.073743591230377    -0.931085012576651     3.927586867384215
    C               -0.057256408769623    -1.638085012576651     1.031586867384215
    C                0.465743591230377    -0.352085012576651     1.202586867384215
    C                0.422743591230377    -2.701085012576651     1.844586867384215
    C                1.479743591230377    -0.139085012576651     2.124586867384215
    C                1.418743591230378    -2.462085012576650     2.779586867384216
    C                1.959743591230377    -1.178085012576650     2.931586867384215
    H               -0.701256408769622    -1.805085012576650     0.192586867384215
    H                0.111743591230377     0.459914987423349     0.616586867384215
    H                0.061743591230377    -3.707085012576650     1.693586867384215
    H                1.892743591230378     0.851914987423349     2.226586867384215
    H                1.789743591230377    -3.273085012576651     3.381586867384215
    H                3.707743591230377    -0.136085012576651     3.535586867384215
    H                3.681743591230377    -1.834085012576651     3.997586867384215
    H                2.732353591230377    -0.656679012576651     4.936626867384216

}
e, wfn = energy('scf', return_wfn=True)
gdma(wfn)
dmavals = variable('DMA DISTRIBUTED MULTIPOLES')
charges = np.array(dmavals)
print(charges)
np.save('SSI-035TRP-058PHE-1-dimer.npy', np.array(charges))--------------------------------------------------------------------------

*** tstart() called on ds3
*** at Mon Apr 27 16:09:59 2020

   => Loading Basis Set <=

    Name: CC-PVDZ
    Role: ORBITAL
    Keyword: BASIS
    atoms 1-9, 20-26   entry C          line   138 file /theoryfs2/ds/metcalf/miniconda2/envs/tf2gpu/share/psi4/basis/cc-pvdz.gbs 
    atoms 10           entry N          line   168 file /theoryfs2/ds/metcalf/miniconda2/envs/tf2gpu/share/psi4/basis/cc-pvdz.gbs 
    atoms 11-19, 27-34 entry H          line    22 file /theoryfs2/ds/metcalf/miniconda2/envs/tf2gpu/share/psi4/basis/cc-pvdz.gbs 


         ---------------------------------------------------------
                                   SCF
               by Justin Turney, Rob Parrish, Andy Simmonett
                          and Daniel G. A. Smith
                              RHF Reference
                        1 Threads,    500 MiB Core
         ---------------------------------------------------------

  ==> Geometry <==

    Molecular point group: c1
    Full point group: C1

    Geometry (in Angstrom), charge = 0, multiplicity = 1:

       Center              X                  Y                   Z               Mass       
    ------------   -----------------  -----------------  -----------------  -----------------
         C           -2.095256408770     2.941914987423     0.186586867384    12.000000000000
         C           -1.279256408770     1.088914987423    -1.418413132616    12.000000000000
         C           -1.052256408770     2.264914987423    -0.652413132616    12.000000000000
         C           -0.056256408770     0.707914987423    -2.025413132616    12.000000000000
         C            0.270743591230     2.553914987423    -0.787413132616    12.000000000000
         C           -2.413256408770     0.298914987423    -1.636413132616    12.000000000000
         C            0.054743591230    -0.405085012577    -2.848413132616    12.000000000000
         C           -2.308256408770    -0.823085012577    -2.456413132616    12.000000000000
         C           -1.091256408770    -1.161085012577    -3.067413132616    12.000000000000
         N            0.869743591230     1.629914987423    -1.622413132616    14.003074004430
         H           -3.340256408770     0.546914987423    -1.148413132616     1.007825032230
         H           -2.132256408770     2.348914987423     1.082586867384     1.007825032230
         H           -3.051256408770     2.842914987423    -0.328413132616     1.007825032230
         H            0.797743591230     3.360914987423    -0.299413132616     1.007825032230
         H            1.877743591230     1.551914987423    -1.715413132616     1.007825032230
         H            0.994743591230    -0.673085012577    -3.302413132616     1.007825032230
         H           -3.176256408770    -1.446085012577    -2.619413132616     1.007825032230
         H           -1.038256408770    -2.042085012577    -3.688413132616     1.007825032230
         H           -1.920266408770     3.995439987423     0.450146867384     1.007825032230
         C            3.073743591230    -0.931085012577     3.927586867384    12.000000000000
         C           -0.057256408770    -1.638085012577     1.031586867384    12.000000000000
         C            0.465743591230    -0.352085012577     1.202586867384    12.000000000000
         C            0.422743591230    -2.701085012577     1.844586867384    12.000000000000
         C            1.479743591230    -0.139085012577     2.124586867384    12.000000000000
         C            1.418743591230    -2.462085012577     2.779586867384    12.000000000000
         C            1.959743591230    -1.178085012577     2.931586867384    12.000000000000
         H           -0.701256408770    -1.805085012577     0.192586867384     1.007825032230
         H            0.111743591230     0.459914987423     0.616586867384     1.007825032230
         H            0.061743591230    -3.707085012577     1.693586867384     1.007825032230
         H            1.892743591230     0.851914987423     2.226586867384     1.007825032230
         H            1.789743591230    -3.273085012577     3.381586867384     1.007825032230
         H            3.707743591230    -0.136085012577     3.535586867384     1.007825032230
         H            3.681743591230    -1.834085012577     3.997586867384     1.007825032230
         H            2.732353591230    -0.656679012577     4.936626867384     1.007825032230

  Running in c1 symmetry.

  Rotational constants: A =      0.02420  B =      0.00963  C =      0.00833 [cm^-1]
  Rotational constants: A =    725.44381  B =    288.68369  C =    249.72189 [MHz]
  Nuclear repulsion = 1104.277251839112068

  Charge       = 0
  Multiplicity = 1
  Electrons    = 120
  Nalpha       = 60
  Nbeta        = 60

  ==> Algorithm <==

  SCF Algorithm Type is PK.
  DIIS enabled.
  MOM disabled.
  Fractional occupation disabled.
  Guess Type is SAD.
  Energy threshold   = 1.00e-06
  Density threshold  = 1.00e-10
  Integral threshold = 0.00e+00

  ==> Primary Basis <==

  Basis Set: CC-PVDZ
    Blend: CC-PVDZ
    Number of shells: 153
    Number of basis function: 323
    Number of Cartesian functions: 340
    Spherical Harmonics?: true
    Max angular momentum: 2

  ==> Pre-Iterations <==

   -------------------------------------------------------
    Irrep   Nso     Nmo     Nalpha   Nbeta   Ndocc  Nsocc
   -------------------------------------------------------
     A        323     323       0       0       0       0
   -------------------------------------------------------
    Total     323     323      60      60      60       0
   -------------------------------------------------------

  ==> Integral Setup <==

  Using integral reordering PK algorithm.
  Sizing the integral batches needed.
  Building batch lookup table.
   Calculation information:
      Number of atoms:                  34
      Number of AO shells:             153
      Number of primitives:            459
      Number of atomic orbitals:       340
      Number of basis functions:       323

      Integral cutoff                 1.00e-12
      Number of threads:                 1

	Batch   1 pq = [       0,    9405] index = [             0,44231715] size =     44231715
	Batch   2 pq = [    9405,   13301] index = [      44231715,88464951] size =     44233236
	Batch   3 pq = [   13301,   16290] index = [      88464951,132690195] size =     44225244
	Batch   4 pq = [   16290,   18810] index = [     132690195,176917455] size =     44227260
	Batch   5 pq = [   18810,   21030] index = [     176917455,221140965] size =     44223510
	Batch   6 pq = [   21030,   23037] index = [     221140965,265363203] size =     44222238
	Batch   7 pq = [   23037,   24883] index = [     265363203,309594286] size =     44231083
	Batch   8 pq = [   24883,   26601] index = [     309594286,353819901] size =     44225615
	Batch   9 pq = [   26601,   28214] index = [     353819901,398029005] size =     44209104
	Batch  10 pq = [   28214,   29740] index = [     398029005,442248670] size =     44219665
	Batch  11 pq = [   29740,   31191] index = [     442248670,486454836] size =     44206166
	Batch  12 pq = [   31191,   32578] index = [     486454836,530679331] size =     44224495
	Batch  13 pq = [   32578,   33908] index = [     530679331,574893186] size =     44213855
	Batch  14 pq = [   33908,   35188] index = [     574893186,619115266] size =     44222080
	Batch  15 pq = [   35188,   36423] index = [     619115266,663335676] size =     44220410
	Batch  16 pq = [   36423,   37617] index = [     663335676,707538153] size =     44202477
	Batch  17 pq = [   37617,   38775] index = [     707538153,751769700] size =     44231547
	Batch  18 pq = [   38775,   39899] index = [     751769700,795985050] size =     44215350
	Batch  19 pq = [   39899,   40992] index = [     795985050,840192528] size =     44207478
	Batch  20 pq = [   40992,   42057] index = [     840192528,884416653] size =     44224125
	Batch  21 pq = [   42057,   43095] index = [     884416653,928611060] size =     44194407
	Batch  22 pq = [   43095,   44109] index = [     928611060,972823995] size =     44212935
	Batch  23 pq = [   44109,   45100] index = [     972823995,1017027550] size =     44203555
	Batch  24 pq = [   45100,   46070] index = [    1017027550,1061245485] size =     44217935
	Batch  25 pq = [   46070,   47020] index = [    1061245485,1105463710] size =     44218225
	Batch  26 pq = [   47020,   47951] index = [    1105463710,1149673176] size =     44209466
	Batch  27 pq = [   47951,   48864] index = [    1149673176,1193869680] size =     44196504
	Batch  28 pq = [   48864,   49761] index = [    1193869680,1238103441] size =     44233761
	Batch  29 pq = [   49761,   50642] index = [    1238103441,1282331403] size =     44227962
	Batch  30 pq = [   50642,   51508] index = [    1282331403,1326562786] size =     44231383
	Batch  31 pq = [   51508,   52326] index = [    1326562786,1369031301] size =     42468515
  Task number: 124
  Buffer size: 11059200
  Buffer per thread: 2
  We computed 81312671 shell quartets total.
  Whereas there are 69401871 unique shell quartets.
    17.16 percent of shell quartets recomputed by reordering.

  ==> DiskJK: Disk-Based J/K Matrices <==

    J tasked:                  Yes
    K tasked:                  Yes
    wK tasked:                  No
    Memory [MiB]:              375
    Schwarz Cutoff:          1E-12

    OpenMP threads:              1

  Minimum eigenvalue in the overlap matrix is 2.4433738743E-04.
  Using Symmetric Orthogonalization.

  SCF Guess: Superposition of Atomic Densities via on-the-fly atomic UHF.

  ==> Iterations <==

                        Total Energy        Delta E     RMS |[F,P]|

   @RHF iter SAD:  -669.59481193245756   -6.69595e+02   0.00000e+00 
   @RHF iter   1:  -669.94685902369349   -3.52047e-01   2.13022e-03 DIIS
   @RHF iter   2:  -670.23530412315120   -2.88445e-01   9.10747e-04 DIIS
   @RHF iter   3:  -670.28131642148901   -4.60123e-02   2.55314e-04 DIIS
   @RHF iter   4:  -670.28593184856493   -4.61543e-03   1.13187e-04 DIIS
   @RHF iter   5:  -670.28667598913933   -7.44141e-04   1.66712e-05 DIIS
   @RHF iter   6:  -670.28670892695288   -3.29378e-05   7.84259e-06 DIIS
   @RHF iter   7:  -670.28671624464164   -7.31769e-06   3.09715e-06 DIIS
   @RHF iter   8:  -670.28671822795877   -1.98332e-06   1.31143e-06 DIIS
   @RHF iter   9:  -670.28671866432228   -4.36364e-07   5.72567e-07 DIIS
   @RHF iter  10:  -670.28671875265115   -8.83289e-08   2.49462e-07 DIIS
   @RHF iter  11:  -670.28671877270745   -2.00563e-08   8.93532e-08 DIIS
   @RHF iter  12:  -670.28671877503336   -2.32592e-09   3.41097e-08 DIIS
   @RHF iter  13:  -670.28671877524550   -2.12140e-10   8.93766e-09 DIIS
   @RHF iter  14:  -670.28671877525699   -1.14824e-11   3.62031e-09 DIIS
   @RHF iter  15:  -670.28671877527529   -1.83036e-11   1.74201e-09 DIIS
   @RHF iter  16:  -670.28671877527017    5.11591e-12   8.26611e-10 DIIS
   @RHF iter  17:  -670.28671877526426    5.91172e-12   3.83230e-10 DIIS
   @RHF iter  18:  -670.28671877526972   -5.45697e-12   1.42231e-10 DIIS
   @RHF iter  19:  -670.28671877526392    5.79803e-12   5.91048e-11 DIIS
  Energy and wave function converged.


  ==> Post-Iterations <==

    Orbital Energies [Eh]
    ---------------------

    Doubly Occupied:                                                      

       1A    -15.603451     2A    -11.267235     3A    -11.266096  
       4A    -11.234875     5A    -11.234051     6A    -11.233857  
       7A    -11.232834     8A    -11.229484     9A    -11.228410  
      10A    -11.225902    11A    -11.225010    12A    -11.222753  
      13A    -11.222324    14A    -11.221659    15A    -11.221310  
      16A    -11.221133    17A    -11.218056    18A     -1.298816  
      19A     -1.139259    20A     -1.131653    21A     -1.080106  
      22A     -1.030736    23A     -1.003875    24A     -0.999987  
      25A     -0.990001    26A     -0.937828    27A     -0.921947  
      28A     -0.844037    29A     -0.812831    30A     -0.807664  
      31A     -0.789385    32A     -0.755992    33A     -0.721360  
      34A     -0.681502    35A     -0.665332    36A     -0.645494  
      37A     -0.629848    38A     -0.619822    39A     -0.608034  
      40A     -0.598647    41A     -0.592690    42A     -0.573902  
      43A     -0.571969    44A     -0.570341    45A     -0.557762  
      46A     -0.549633    47A     -0.537323    48A     -0.529379  
      49A     -0.529129    50A     -0.498122    51A     -0.479201  
      52A     -0.477922    53A     -0.473381    54A     -0.472026  
      55A     -0.461430    56A     -0.376890    57A     -0.324578  
      58A     -0.308562    59A     -0.298884    60A     -0.279075  

    Virtual:                                                              

      61A      0.119849    62A      0.143413    63A      0.145301  
      64A      0.165740    65A      0.174615    66A      0.188582  
      67A      0.194965    68A      0.200490    69A      0.216823  
      70A      0.220132    71A      0.225495    72A      0.231759  
      73A      0.247193    74A      0.257706    75A      0.261508  
      76A      0.264387    77A      0.275571    78A      0.280212  
      79A      0.288365    80A      0.296126    81A      0.301827  
      82A      0.356347    83A      0.369818    84A      0.372153  
      85A      0.379977    86A      0.382347    87A      0.402569  
      88A      0.418386    89A      0.441458    90A      0.458444  
      91A      0.468068    92A      0.470798    93A      0.476521  
      94A      0.488230    95A      0.490164    96A      0.505079  
      97A      0.533504    98A      0.562467    99A      0.592691  
     100A      0.609153   101A      0.614081   102A      0.631539  
     103A      0.642202   104A      0.650618   105A      0.653293  
     106A      0.672708   107A      0.682298   108A      0.693551  
     109A      0.703278   110A      0.712121   111A      0.714997  
     112A      0.721514   113A      0.729366   114A      0.731422  
     115A      0.732516   116A      0.734049   117A      0.747721  
     118A      0.750576   119A      0.754787   120A      0.762643  
     121A      0.767199   122A      0.773997   123A      0.780574  
     124A      0.783840   125A      0.793369   126A      0.798931  
     127A      0.808155   128A      0.825944   129A      0.838342  
     130A      0.847951   131A      0.862131   132A      0.866978  
     133A      0.874072   134A      0.879491   135A      0.881852  
     136A      0.884709   137A      0.886579   138A      0.893624  
     139A      0.899017   140A      0.905392   141A      0.913386  
     142A      0.921760   143A      0.929595   144A      0.937982  
     145A      0.942294   146A      0.944590   147A      0.957140  
     148A      0.959830   149A      0.971467   150A      0.980775  
     151A      0.996995   152A      1.011636   153A      1.012956  
     154A      1.031780   155A      1.040195   156A      1.060795  
     157A      1.089271   158A      1.098579   159A      1.108747  
     160A      1.121661   161A      1.127995   162A      1.141909  
     163A      1.156145   164A      1.161101   165A      1.168264  
     166A      1.170646   167A      1.182074   168A      1.195803  
     169A      1.204572   170A      1.208197   171A      1.225230  
     172A      1.235537   173A      1.248990   174A      1.259638  
     175A      1.262869   176A      1.271249   177A      1.280511  
     178A      1.283571   179A      1.294977   180A      1.305733  
     181A      1.310755   182A      1.317396   183A      1.320123  
     184A      1.332563   185A      1.338378   186A      1.356915  
     187A      1.380261   188A      1.396208   189A      1.401604  
     190A      1.412966   191A      1.447713   192A      1.503867  
     193A      1.523584   194A      1.528718   195A      1.554619  
     196A      1.557531   197A      1.578268   198A      1.596434  
     199A      1.601126   200A      1.621645   201A      1.643011  
     202A      1.660397   203A      1.671818   204A      1.688893  
     205A      1.698859   206A      1.705173   207A      1.720462  
     208A      1.734589   209A      1.742930   210A      1.749201  
     211A      1.757012   212A      1.761474   213A      1.773089  
     214A      1.790595   215A      1.793694   216A      1.816703  
     217A      1.817553   218A      1.831245   219A      1.842600  
     220A      1.861463   221A      1.875414   222A      1.883786  
     223A      1.886537   224A      1.897225   225A      1.908550  
     226A      1.914160   227A      1.917137   228A      1.923890  
     229A      1.931184   230A      1.932744   231A      1.940033  
     232A      1.951697   233A      1.955389   234A      1.963253  
     235A      1.974579   236A      1.981443   237A      1.992929  
     238A      2.007192   239A      2.011670   240A      2.016556  
     241A      2.031013   242A      2.037481   243A      2.050923  
     244A      2.056311   245A      2.059513   246A      2.072592  
     247A      2.077408   248A      2.098695   249A      2.103322  
     250A      2.115908   251A      2.118297   252A      2.132184  
     253A      2.137615   254A      2.146854   255A      2.151319  
     256A      2.160391   257A      2.163628   258A      2.171641  
     259A      2.175066   260A      2.187122   261A      2.191188  
     262A      2.225958   263A      2.242021   264A      2.253034  
     265A      2.267750   266A      2.284966   267A      2.289348  
     268A      2.297966   269A      2.306414   270A      2.317558  
     271A      2.329875   272A      2.332211   273A      2.339641  
     274A      2.377526   275A      2.385572   276A      2.424545  
     277A      2.445691   278A      2.452865   279A      2.474991  
     280A      2.484325   281A      2.490960   282A      2.510144  
     283A      2.546200   284A      2.555605   285A      2.575751  
     286A      2.606554   287A      2.631575   288A      2.648906  
     289A      2.660223   290A      2.693153   291A      2.732365  
     292A      2.757414   293A      2.766629   294A      2.773005  
     295A      2.777248   296A      2.781172   297A      2.799128  
     298A      2.802310   299A      2.812978   300A      2.835092  
     301A      2.851836   302A      2.861318   303A      2.862290  
     304A      2.887824   305A      2.907759   306A      2.921689  
     307A      2.978319   308A      3.001710   309A      3.013886  
     310A      3.027903   311A      3.046532   312A      3.071715  
     313A      3.096081   314A      3.145031   315A      3.164826  
     316A      3.205139   317A      3.219489   318A      3.314025  
     319A      3.326008   320A      3.381091   321A      3.728028  
     322A      3.951542   323A      3.960114  

    Final Occupation by Irrep:
              A 
    DOCC [    60 ]

  @RHF Final Energy:  -670.28671877526392

   => Energetics <=

    Nuclear Repulsion Energy =           1104.2772518391120684
    One-Electron Energy =               -3100.1583513343944105
    Two-Electron Energy =                1325.5943807200183073
    Total Energy =                       -670.2867187752640348

Computation Completed


Properties will be evaluated at   0.000000,   0.000000,   0.000000 [a0]

Properties computed using the SCF density matrix

  Nuclear Dipole Moment: [e a0]
     X:     2.1426      Y:     0.3566      Z:     8.4528

  Electronic Dipole Moment: [e a0]
     X:    -1.4501      Y:    -0.0109      Z:    -8.4117

  Dipole Moment: [e a0]
     X:     0.6925      Y:     0.3458      Z:     0.0411     Total:     0.7751

  Dipole Moment: [D]
     X:     1.7601      Y:     0.8789      Z:     0.1044     Total:     1.9702


*** tstop() called on ds3 at Mon Apr 27 16:29:50 2020
Module time:
	user time   =     798.49 seconds =      13.31 minutes
	system time =     246.04 seconds =       4.10 minutes
	total time  =       1191 seconds =      19.85 minutes
Total time:
	user time   =     798.49 seconds =      13.31 minutes
	system time =     246.04 seconds =       4.10 minutes
	total time  =       1191 seconds =      19.85 minutes
                                     G D M A

                                 by Anthony Stone

                           version 2.2.06, 22 June 2011

               Distributed Multipoles from Gaussian wavefunctions


Starting at 16:29:50 on 27 Apr 2020 


Using SCF density matrix from file ./SSI/SSI-035TRP-058PHE-1-dimer.test.16889.fchk


                         Distributed Multipole Analysis

Standard DMA

Positions and radii in angstrom
Multipole moments in atomic units, ea_0^k for rank k

C          x = -2.095256  y =  2.941915  z =  0.186587 angstrom
           Maximum rank =  0   Radius =  0.650 angstrom
                   Q00  =  -0.209614

C          x = -1.279256  y =  1.088915  z = -1.418413 angstrom
           Maximum rank =  0   Radius =  0.650 angstrom
                   Q00  =  -0.059515

C          x = -1.052256  y =  2.264915  z = -0.652413 angstrom
           Maximum rank =  0   Radius =  0.650 angstrom
                   Q00  =  -0.110029

C          x = -0.056256  y =  0.707915  z = -2.025413 angstrom
           Maximum rank =  0   Radius =  0.650 angstrom
                   Q00  =   0.297392

C          x =  0.270744  y =  2.553915  z = -0.787413 angstrom
           Maximum rank =  0   Radius =  0.650 angstrom
                   Q00  =   0.062416

C          x = -2.413256  y =  0.298915  z = -1.636413 angstrom
           Maximum rank =  0   Radius =  0.650 angstrom
                   Q00  =  -0.103027

C          x =  0.054744  y = -0.405085  z = -2.848413 angstrom
           Maximum rank =  0   Radius =  0.650 angstrom
                   Q00  =  -0.114043

C          x = -2.308256  y = -0.823085  z = -2.456413 angstrom
           Maximum rank =  0   Radius =  0.650 angstrom
                   Q00  =  -0.082327

C          x = -1.091256  y = -1.161085  z = -3.067413 angstrom
           Maximum rank =  0   Radius =  0.650 angstrom
                   Q00  =  -0.078597

N          x =  0.869744  y =  1.629915  z = -1.622413 angstrom
           Maximum rank =  0   Radius =  0.650 angstrom
                   Q00  =  -0.495455

H          x = -3.340256  y =  0.546915  z = -1.148413 angstrom
           Maximum rank =  0   Radius =  0.325 angstrom
                   Q00  =   0.073373

H          x = -2.132256  y =  2.348915  z =  1.082587 angstrom
           Maximum rank =  0   Radius =  0.325 angstrom
                   Q00  =   0.102904

H          x = -3.051256  y =  2.842915  z = -0.328413 angstrom
           Maximum rank =  0   Radius =  0.325 angstrom
                   Q00  =   0.104675

H          x =  0.797744  y =  3.360915  z = -0.299413 angstrom
           Maximum rank =  0   Radius =  0.325 angstrom
                   Q00  =   0.100836

H          x =  1.877744  y =  1.551915  z = -1.715413 angstrom
           Maximum rank =  0   Radius =  0.325 angstrom
                   Q00  =   0.218466

H          x =  0.994744  y = -0.673085  z = -3.302413 angstrom
           Maximum rank =  0   Radius =  0.325 angstrom
                   Q00  =   0.076893

H          x = -3.176256  y = -1.446085  z = -2.619413 angstrom
           Maximum rank =  0   Radius =  0.325 angstrom
                   Q00  =   0.061872

H          x = -1.038256  y = -2.042085  z = -3.688413 angstrom
           Maximum rank =  0   Radius =  0.325 angstrom
                   Q00  =   0.067299

H          x = -1.920266  y =  3.995440  z =  0.450147 angstrom
           Maximum rank =  0   Radius =  0.325 angstrom
                   Q00  =   0.110027

C          x =  3.073744  y = -0.931085  z =  3.927587 angstrom
           Maximum rank =  0   Radius =  0.650 angstrom
                   Q00  =  -0.195851

C          x = -0.057256  y = -1.638085  z =  1.031587 angstrom
           Maximum rank =  0   Radius =  0.650 angstrom
                   Q00  =  -0.098559

C          x =  0.465744  y = -0.352085  z =  1.202587 angstrom
           Maximum rank =  0   Radius =  0.650 angstrom
                   Q00  =  -0.061466

C          x =  0.422744  y = -2.701085  z =  1.844587 angstrom
           Maximum rank =  0   Radius =  0.650 angstrom
                   Q00  =  -0.083404

C          x =  1.479744  y = -0.139085  z =  2.124587 angstrom
           Maximum rank =  0   Radius =  0.650 angstrom
                   Q00  =  -0.009457

C          x =  1.418744  y = -2.462085  z =  2.779587 angstrom
           Maximum rank =  0   Radius =  0.650 angstrom
                   Q00  =  -0.050066

C          x =  1.959744  y = -1.178085  z =  2.931587 angstrom
           Maximum rank =  0   Radius =  0.650 angstrom
                   Q00  =  -0.122660

H          x = -0.701256  y = -1.805085  z =  0.192587 angstrom
           Maximum rank =  0   Radius =  0.325 angstrom
                   Q00  =   0.076538

H          x =  0.111744  y =  0.459915  z =  0.616587 angstrom
           Maximum rank =  0   Radius =  0.325 angstrom
                   Q00  =   0.071465

H          x =  0.061744  y = -3.707085  z =  1.693587 angstrom
           Maximum rank =  0   Radius =  0.325 angstrom
                   Q00  =   0.063797

H          x =  1.892744  y =  0.851915  z =  2.226587 angstrom
           Maximum rank =  0   Radius =  0.325 angstrom
                   Q00  =   0.039182

H          x =  1.789744  y = -3.273085  z =  3.381587 angstrom
           Maximum rank =  0   Radius =  0.325 angstrom
                   Q00  =   0.053306

H          x =  3.707744  y = -0.136085  z =  3.535587 angstrom
           Maximum rank =  0   Radius =  0.325 angstrom
                   Q00  =   0.094292

H          x =  3.681744  y = -1.834085  z =  3.997587 angstrom
           Maximum rank =  0   Radius =  0.325 angstrom
                   Q00  =   0.095484

H          x =  2.732354  y = -0.656679  z =  4.936627 angstrom
           Maximum rank =  0   Radius =  0.325 angstrom
                   Q00  =   0.103853

Total multipoles referred to origin at
           x =   0.000000,  y =    0.000000,  z =    0.000000 angstrom
                   Q00  =  -0.000000

Finished at 16:29:50 on 27 Apr 2020 

  DMA results are available in the Python driver through the
	  variable('DMA DISTRIBUTED MULTIPOLES')
  and
	  variable('DMA TOTAL MULTIPOLES')
  commands.


    Psi4 stopped on: Monday, 27 April 2020 04:29PM
    Psi4 wall time for execution: 0:19:51.50

*** Psi4 exiting successfully. Buy a developer a beer!
