
    -----------------------------------------------------------------------
          Psi4: An Open-Source Ab Initio Electronic Structure Package
                               Psi4 1.3.2 release

                         Git: Rev {HEAD} ecbda83 


    R. M. Parrish, L. A. Burns, D. G. A. Smith, A. C. Simmonett,
    A. E. DePrince III, E. G. Hohenstein, U. Bozkaya, A. Yu. Sokolov,
    R. Di Remigio, R. M. Richard, J. F. Gonthier, A. M. James,
    H. R. McAlexander, A. Kumar, M. Saitow, X. Wang, B. P. Pritchard,
    P. Verma, H. F. Schaefer III, K. Patkowski, R. A. King, E. F. Valeev,
    F. A. Evangelista, J. M. Turney, T. D. Crawford, and C. D. Sherrill,
    J. Chem. Theory Comput. 13(7) pp 3185--3197 (2017).
    (doi: 10.1021/acs.jctc.7b00174)


                         Additional Contributions by
    P. Kraus, H. Kruse, M. H. Lechner, M. C. Schieber, R. A. Shaw,
    A. Alenaizan, R. Galvelis, Z. L. Glick, S. Lehtola, and J. P. Misiewicz

    -----------------------------------------------------------------------


    Psi4 started on: Monday, 27 April 2020 08:51PM

    Process ID: 19380
    Host:       ds3
    PSIDATADIR: /theoryfs2/ds/metcalf/miniconda2/envs/tf2gpu/share/psi4
    Memory:     500.0 MiB
    Threads:    1
    
  ==> Input File <==

--------------------------------------------------------------------------
import numpy as np
set {scf_type pk
basis cc-pvdz
d_convergence 10
gdma_switch   0
gdma_limit    0
gdma_origin   [ 0.0,  0.0,  0.0 ]
}
molecule test {
    units Angstrom
    0 1
    --
    0 1
    C               -0.544783767631438     1.415968603363489    -0.366325460434616
    C               -0.224783767631437     1.872968603363489     1.060674539565384
    C               -1.874783767631438     1.953968603363489    -0.885325460434616
    H                0.260216232368563     1.767968603363489    -1.013325460434616
    H               -0.563783767631438     0.328968603363489    -0.410325460434616
    H                0.809216232368563     1.563968603363489     1.228674539565384
    H               -2.694783767631438     1.419968603363490    -0.412325460434616
    H               -1.974783767631437     3.007968603363489    -0.636325460434616
    H               -0.847713767631437     1.343738603363489     1.796794539565384
    H               -0.223343767631437     2.967668603363490     1.168564539565384
    H               -1.997953767631438     1.879778603363489    -1.975885460434616
    C                1.010216232368562    -1.874031396636511    -0.002325460434616
    C                1.591216232368563    -3.274031396636510     0.165674539565384
    H                0.513216232368563    -1.776031396636511    -0.965325460434616
    H                0.272216232368563    -1.693031396636511     0.777674539565384
    H                1.801216232368563    -1.127031396636511     0.077674539565384
    H                0.781216232368563    -3.996031396636511     0.095674539565384
    H                2.002216232368562    -3.323031396636511     1.172674539565384
    H                2.373876232368563    -3.494151396636510    -0.575265460434616

}
e, wfn = energy('scf', return_wfn=True)
gdma(wfn)
dmavals = variable('DMA DISTRIBUTED MULTIPOLES')
charges = np.array(dmavals)
print(charges)
np.save('SSI-025GLN-260ILE-1-dimer.npy', np.array(charges))--------------------------------------------------------------------------

*** tstart() called on ds3
*** at Mon Apr 27 20:51:23 2020

   => Loading Basis Set <=

    Name: CC-PVDZ
    Role: ORBITAL
    Keyword: BASIS
    atoms 1-3, 12-13  entry C          line   138 file /theoryfs2/ds/metcalf/miniconda2/envs/tf2gpu/share/psi4/basis/cc-pvdz.gbs 
    atoms 4-11, 14-19 entry H          line    22 file /theoryfs2/ds/metcalf/miniconda2/envs/tf2gpu/share/psi4/basis/cc-pvdz.gbs 


         ---------------------------------------------------------
                                   SCF
               by Justin Turney, Rob Parrish, Andy Simmonett
                          and Daniel G. A. Smith
                              RHF Reference
                        1 Threads,    500 MiB Core
         ---------------------------------------------------------

  ==> Geometry <==

    Molecular point group: c1
    Full point group: C1

    Geometry (in Angstrom), charge = 0, multiplicity = 1:

       Center              X                  Y                   Z               Mass       
    ------------   -----------------  -----------------  -----------------  -----------------
         C           -0.544783767631     1.415968603363    -0.366325460435    12.000000000000
         C           -0.224783767631     1.872968603363     1.060674539565    12.000000000000
         C           -1.874783767631     1.953968603363    -0.885325460435    12.000000000000
         H            0.260216232369     1.767968603363    -1.013325460435     1.007825032230
         H           -0.563783767631     0.328968603363    -0.410325460435     1.007825032230
         H            0.809216232369     1.563968603363     1.228674539565     1.007825032230
         H           -2.694783767631     1.419968603363    -0.412325460435     1.007825032230
         H           -1.974783767631     3.007968603363    -0.636325460435     1.007825032230
         H           -0.847713767631     1.343738603363     1.796794539565     1.007825032230
         H           -0.223343767631     2.967668603363     1.168564539565     1.007825032230
         H           -1.997953767631     1.879778603363    -1.975885460435     1.007825032230
         C            1.010216232369    -1.874031396637    -0.002325460435    12.000000000000
         C            1.591216232369    -3.274031396637     0.165674539565    12.000000000000
         H            0.513216232369    -1.776031396637    -0.965325460435     1.007825032230
         H            0.272216232369    -1.693031396637     0.777674539565     1.007825032230
         H            1.801216232369    -1.127031396637     0.077674539565     1.007825032230
         H            0.781216232369    -3.996031396637     0.095674539565     1.007825032230
         H            2.002216232369    -3.323031396637     1.172674539565     1.007825032230
         H            2.373876232369    -3.494151396637    -0.575265460435     1.007825032230

  Running in c1 symmetry.

  Rotational constants: A =      0.26654  B =      0.03602  C =      0.03303 [cm^-1]
  Rotational constants: A =   7990.79380  B =   1079.95107  C =    990.30487 [MHz]
  Nuclear repulsion =  176.581249193019062

  Charge       = 0
  Multiplicity = 1
  Electrons    = 44
  Nalpha       = 22
  Nbeta        = 22

  ==> Algorithm <==

  SCF Algorithm Type is PK.
  DIIS enabled.
  MOM disabled.
  Fractional occupation disabled.
  Guess Type is SAD.
  Energy threshold   = 1.00e-06
  Density threshold  = 1.00e-10
  Integral threshold = 0.00e+00

  ==> Primary Basis <==

  Basis Set: CC-PVDZ
    Blend: CC-PVDZ
    Number of shells: 72
    Number of basis function: 140
    Number of Cartesian functions: 145
    Spherical Harmonics?: true
    Max angular momentum: 2

  ==> Pre-Iterations <==

   -------------------------------------------------------
    Irrep   Nso     Nmo     Nalpha   Nbeta   Ndocc  Nsocc
   -------------------------------------------------------
     A        140     140       0       0       0       0
   -------------------------------------------------------
    Total     140     140      22      22      22       0
   -------------------------------------------------------

  ==> Integral Setup <==

  Using integral reordering PK algorithm.
  Sizing the integral batches needed.
  Building batch lookup table.
   Calculation information:
      Number of atoms:                  19
      Number of AO shells:              72
      Number of primitives:            180
      Number of atomic orbitals:       145
      Number of basis functions:       140

      Integral cutoff                 1.00e-12
      Number of threads:                 1

	Batch   1 pq = [       0,    9405] index = [             0,44231715] size =     44231715
	Batch   2 pq = [    9405,    9870] index = [      44231715,48713385] size =      4481670
  Task number: 5
  Buffer size: 11059200
  Buffer per thread: 2
  We computed 2743963 shell quartets total.
  Whereas there are 3454506 unique shell quartets.

  ==> DiskJK: Disk-Based J/K Matrices <==

    J tasked:                  Yes
    K tasked:                  Yes
    wK tasked:                  No
    Memory [MiB]:              375
    Schwarz Cutoff:          1E-12

    OpenMP threads:              1

  Minimum eigenvalue in the overlap matrix is 5.0781522902E-03.
  Using Symmetric Orthogonalization.

  SCF Guess: Superposition of Atomic Densities via on-the-fly atomic UHF.

  ==> Iterations <==

                        Total Energy        Delta E     RMS |[F,P]|

   @RHF iter SAD:  -196.37831469446476   -1.96378e+02   0.00000e+00 
   @RHF iter   1:  -197.30836634569448   -9.30052e-01   3.81354e-03 DIIS
   @RHF iter   2:  -197.46904654076420   -1.60680e-01   1.64464e-03 DIIS
   @RHF iter   3:  -197.49758397985744   -2.85374e-02   3.26445e-04 DIIS
   @RHF iter   4:  -197.49982308940758   -2.23911e-03   4.83509e-05 DIIS
   @RHF iter   5:  -197.49986236269908   -3.92733e-05   1.47280e-05 DIIS
   @RHF iter   6:  -197.49986569012020   -3.32742e-06   2.55642e-06 DIIS
   @RHF iter   7:  -197.49986580552360   -1.15403e-07   4.67556e-07 DIIS
   @RHF iter   8:  -197.49986581024251   -4.71891e-09   1.15635e-07 DIIS
   @RHF iter   9:  -197.49986581052181   -2.79300e-10   3.80331e-08 DIIS
   @RHF iter  10:  -197.49986581055154   -2.97291e-11   8.12455e-09 DIIS
   @RHF iter  11:  -197.49986581055487   -3.32534e-12   1.52359e-09 DIIS
   @RHF iter  12:  -197.49986581055492   -5.68434e-14   2.80642e-10 DIIS
   @RHF iter  13:  -197.49986581055424    6.82121e-13   5.90683e-11 DIIS
  Energy and wave function converged.


  ==> Post-Iterations <==

    Orbital Energies [Eh]
    ---------------------

    Doubly Occupied:                                                      

       1A    -11.218152     2A    -11.217741     3A    -11.217016  
       4A    -11.217006     5A    -11.212234     6A     -1.051166  
       7A     -1.021207     8A     -0.923830     9A     -0.838276  
      10A     -0.794827    11A     -0.626597    12A     -0.601205  
      13A     -0.600050    14A     -0.589862    15A     -0.543006  
      16A     -0.536782    17A     -0.503246    18A     -0.488392  
      19A     -0.486382    20A     -0.468546    21A     -0.465610  
      22A     -0.463264  

    Virtual:                                                              

      23A      0.171424    24A      0.194428    25A      0.216790  
      26A      0.221065    27A      0.229192    28A      0.254355  
      29A      0.261035    30A      0.268957    31A      0.274310  
      32A      0.282634    33A      0.291427    34A      0.304017  
      35A      0.319637    36A      0.331068    37A      0.376224  
      38A      0.402626    39A      0.435368    40A      0.569245  
      41A      0.580255    42A      0.595395    43A      0.601461  
      44A      0.609741    45A      0.622698    46A      0.634806  
      47A      0.687843    48A      0.704330    49A      0.735751  
      50A      0.786300    51A      0.822908    52A      0.849857  
      53A      0.861248    54A      0.877857    55A      0.891577  
      56A      0.893821    57A      0.898247    58A      0.899479  
      59A      0.905040    60A      0.905402    61A      0.918256  
      62A      0.921387    63A      0.934266    64A      0.948100  
      65A      0.956829    66A      0.962043    67A      0.986164  
      68A      1.024115    69A      1.122533    70A      1.125643  
      71A      1.128872    72A      1.142306    73A      1.231282  
      74A      1.242376    75A      1.395427    76A      1.465887  
      77A      1.467620    78A      1.480830    79A      1.496938  
      80A      1.513940    81A      1.585864    82A      1.639201  
      83A      1.667427    84A      1.678727    85A      1.687953  
      86A      1.694005    87A      1.712816    88A      1.842824  
      89A      1.854678    90A      1.860484    91A      1.873796  
      92A      1.886650    93A      1.907172    94A      1.925723  
      95A      1.926902    96A      1.940878    97A      1.947599  
      98A      1.958692    99A      1.962459   100A      1.966282  
     101A      1.973820   102A      1.977907   103A      1.987298  
     104A      1.995662   105A      2.024877   106A      2.050973  
     107A      2.092022   108A      2.101103   109A      2.112896  
     110A      2.124924   111A      2.163009   112A      2.281884  
     113A      2.301915   114A      2.313106   115A      2.327144  
     116A      2.351450   117A      2.393990   118A      2.455278  
     119A      2.473728   120A      2.479926   121A      2.541067  
     122A      2.555129   123A      2.562854   124A      2.580019  
     125A      2.610564   126A      2.641541   127A      2.762067  
     128A      2.773483   129A      2.779802   130A      2.788774  
     131A      2.793751   132A      2.822354   133A      2.844586  
     134A      2.862812   135A      2.919140   136A      2.949051  
     137A      2.956452   138A      2.964662   139A      2.990819  
     140A      3.078828  

    Final Occupation by Irrep:
              A 
    DOCC [    22 ]

  @RHF Final Energy:  -197.49986581055424

   => Energetics <=

    Nuclear Repulsion Energy =            176.5812491930190617
    One-Electron Energy =                -613.9934349871675749
    Two-Electron Energy =                 239.9123199835942728
    Total Energy =                       -197.4998658105542404

Computation Completed


Properties will be evaluated at   0.000000,   0.000000,   0.000000 [a0]

Properties computed using the SCF density matrix

  Nuclear Dipole Moment: [e a0]
     X:     0.4791      Y:    -1.0587      Z:     0.3084

  Electronic Dipole Moment: [e a0]
     X:    -0.4358      Y:     1.0141      Z:    -0.3140

  Dipole Moment: [e a0]
     X:     0.0433      Y:    -0.0446      Z:    -0.0056     Total:     0.0624

  Dipole Moment: [D]
     X:     0.1100      Y:    -0.1133      Z:    -0.0143     Total:     0.1586


*** tstop() called on ds3 at Mon Apr 27 20:51:44 2020
Module time:
	user time   =      14.82 seconds =       0.25 minutes
	system time =       6.70 seconds =       0.11 minutes
	total time  =         21 seconds =       0.35 minutes
Total time:
	user time   =      14.82 seconds =       0.25 minutes
	system time =       6.70 seconds =       0.11 minutes
	total time  =         21 seconds =       0.35 minutes
                                     G D M A

                                 by Anthony Stone

                           version 2.2.06, 22 June 2011

               Distributed Multipoles from Gaussian wavefunctions


Starting at 20:51:44 on 27 Apr 2020 


Using SCF density matrix from file ./SSI/SSI-025GLN-260ILE-1-dimer.test.19380.fchk


                         Distributed Multipole Analysis

Standard DMA

Positions and radii in angstrom
Multipole moments in atomic units, ea_0^k for rank k

C          x = -0.544784  y =  1.415969  z = -0.366325 angstrom
           Maximum rank =  0   Radius =  0.650 angstrom
                   Q00  =  -0.066704

C          x = -0.224784  y =  1.872969  z =  1.060675 angstrom
           Maximum rank =  0   Radius =  0.650 angstrom
                   Q00  =  -0.234255

C          x = -1.874784  y =  1.953969  z = -0.885325 angstrom
           Maximum rank =  0   Radius =  0.650 angstrom
                   Q00  =  -0.248614

H          x =  0.260216  y =  1.767969  z = -1.013325 angstrom
           Maximum rank =  0   Radius =  0.325 angstrom
                   Q00  =   0.042664

H          x = -0.563784  y =  0.328969  z = -0.410325 angstrom
           Maximum rank =  0   Radius =  0.325 angstrom
                   Q00  =   0.056656

H          x =  0.809216  y =  1.563969  z =  1.228675 angstrom
           Maximum rank =  0   Radius =  0.325 angstrom
                   Q00  =   0.081239

H          x = -2.694784  y =  1.419969  z = -0.412325 angstrom
           Maximum rank =  0   Radius =  0.325 angstrom
                   Q00  =   0.075363

H          x = -1.974784  y =  3.007969  z = -0.636325 angstrom
           Maximum rank =  0   Radius =  0.325 angstrom
                   Q00  =   0.073139

H          x = -0.847714  y =  1.343739  z =  1.796795 angstrom
           Maximum rank =  0   Radius =  0.325 angstrom
                   Q00  =   0.066480

H          x = -0.223344  y =  2.967669  z =  1.168565 angstrom
           Maximum rank =  0   Radius =  0.325 angstrom
                   Q00  =   0.069328

H          x = -1.997954  y =  1.879779  z = -1.975885 angstrom
           Maximum rank =  0   Radius =  0.325 angstrom
                   Q00  =   0.082201

C          x =  1.010216  y = -1.874031  z = -0.002325 angstrom
           Maximum rank =  0   Radius =  0.650 angstrom
                   Q00  =  -0.242956

C          x =  1.591216  y = -3.274031  z =  0.165675 angstrom
           Maximum rank =  0   Radius =  0.650 angstrom
                   Q00  =  -0.227755

H          x =  0.513216  y = -1.776031  z = -0.965325 angstrom
           Maximum rank =  0   Radius =  0.325 angstrom
                   Q00  =   0.076321

H          x =  0.272216  y = -1.693031  z =  0.777675 angstrom
           Maximum rank =  0   Radius =  0.325 angstrom
                   Q00  =   0.075830

H          x =  1.801216  y = -1.127031  z =  0.077675 angstrom
           Maximum rank =  0   Radius =  0.325 angstrom
                   Q00  =   0.080469

H          x =  0.781216  y = -3.996031  z =  0.095675 angstrom
           Maximum rank =  0   Radius =  0.325 angstrom
                   Q00  =   0.079701

H          x =  2.002216  y = -3.323031  z =  1.172675 angstrom
           Maximum rank =  0   Radius =  0.325 angstrom
                   Q00  =   0.077986

H          x =  2.373876  y = -3.494151  z = -0.575265 angstrom
           Maximum rank =  0   Radius =  0.325 angstrom
                   Q00  =   0.082906

Total multipoles referred to origin at
           x =   0.000000,  y =    0.000000,  z =    0.000000 angstrom
                   Q00  =  -0.000000

Finished at 20:51:44 on 27 Apr 2020 

  DMA results are available in the Python driver through the
	  variable('DMA DISTRIBUTED MULTIPOLES')
  and
	  variable('DMA TOTAL MULTIPOLES')
  commands.


    Psi4 stopped on: Monday, 27 April 2020 08:51PM
    Psi4 wall time for execution: 0:00:21.29

*** Psi4 exiting successfully. Buy a developer a beer!
