
    -----------------------------------------------------------------------
          Psi4: An Open-Source Ab Initio Electronic Structure Package
                               Psi4 1.3.2 release

                         Git: Rev {HEAD} ecbda83 


    R. M. Parrish, L. A. Burns, D. G. A. Smith, A. C. Simmonett,
    A. E. DePrince III, E. G. Hohenstein, U. Bozkaya, A. Yu. Sokolov,
    R. Di Remigio, R. M. Richard, J. F. Gonthier, A. M. James,
    H. R. McAlexander, A. Kumar, M. Saitow, X. Wang, B. P. Pritchard,
    P. Verma, H. F. Schaefer III, K. Patkowski, R. A. King, E. F. Valeev,
    F. A. Evangelista, J. M. Turney, T. D. Crawford, and C. D. Sherrill,
    J. Chem. Theory Comput. 13(7) pp 3185--3197 (2017).
    (doi: 10.1021/acs.jctc.7b00174)


                         Additional Contributions by
    P. Kraus, H. Kruse, M. H. Lechner, M. C. Schieber, R. A. Shaw,
    A. Alenaizan, R. Galvelis, Z. L. Glick, S. Lehtola, and J. P. Misiewicz

    -----------------------------------------------------------------------


    Psi4 started on: Tuesday, 28 April 2020 09:30AM

    Process ID: 10678
    Host:       ds3
    PSIDATADIR: /theoryfs2/ds/metcalf/miniconda2/envs/tf2gpu/share/psi4
    Memory:     500.0 MiB
    Threads:    1
    
  ==> Input File <==

--------------------------------------------------------------------------
import numpy as np
set {scf_type pk
basis cc-pvdz
d_convergence 10
gdma_switch   0
gdma_limit    0
gdma_origin   [ 0.0,  0.0,  0.0 ]
}
molecule test {
    units Angstrom
    0 1
    --
    0 1
    C               -1.176566077099364    -0.275771458520486     1.149707692455474
    C               -1.832566077099363    -1.651771458520486     1.373707692455475
    H               -1.390566077099364     0.081228541479514     0.140707692455474
    H               -1.567566077099364     0.439228541479514     1.872707692455475
    H               -0.096566077099363    -0.362771458520486     1.276707692455474
    H               -2.913566077099363    -1.588771458520486     1.241707692455474
    H               -1.424386077099363    -2.347821458520486     0.626107692455474
    H               -1.604396077099363    -1.990161458520486     2.395197692455474
    C                1.747433922900636     0.244228541479514    -1.269292307544525
    C                1.261433922900637     1.680228541479514    -1.258292307544525
    H                2.457433922900637     0.104228541479514    -2.082292307544525
    H                2.233433922900637     0.018228541479514    -0.319292307544526
    H                0.898433922900637    -0.425771458520486    -1.406292307544525
    H                0.554433922900637     1.807228541479514    -0.443292307544526
    H                0.764903922900636     1.932068541479514    -2.206992307544525
    H                2.091553922900637     2.369828541479515    -1.045332307544526

}
e, wfn = energy('scf', return_wfn=True)
gdma(wfn)
dmavals = variable('DMA DISTRIBUTED MULTIPOLES')
charges = np.array(dmavals)
print(charges)
np.save('SSI-175VAL-268LEU-1-dimer.npy', np.array(charges))--------------------------------------------------------------------------

*** tstart() called on ds3
*** at Tue Apr 28 09:30:48 2020

   => Loading Basis Set <=

    Name: CC-PVDZ
    Role: ORBITAL
    Keyword: BASIS
    atoms 1-2, 9-10  entry C          line   138 file /theoryfs2/ds/metcalf/miniconda2/envs/tf2gpu/share/psi4/basis/cc-pvdz.gbs 
    atoms 3-8, 11-16 entry H          line    22 file /theoryfs2/ds/metcalf/miniconda2/envs/tf2gpu/share/psi4/basis/cc-pvdz.gbs 


         ---------------------------------------------------------
                                   SCF
               by Justin Turney, Rob Parrish, Andy Simmonett
                          and Daniel G. A. Smith
                              RHF Reference
                        1 Threads,    500 MiB Core
         ---------------------------------------------------------

  ==> Geometry <==

    Molecular point group: c1
    Full point group: C1

    Geometry (in Angstrom), charge = 0, multiplicity = 1:

       Center              X                  Y                   Z               Mass       
    ------------   -----------------  -----------------  -----------------  -----------------
         C           -1.176566077099    -0.275771458520     1.149707692455    12.000000000000
         C           -1.832566077099    -1.651771458520     1.373707692455    12.000000000000
         H           -1.390566077099     0.081228541480     0.140707692455     1.007825032230
         H           -1.567566077099     0.439228541480     1.872707692455     1.007825032230
         H           -0.096566077099    -0.362771458520     1.276707692455     1.007825032230
         H           -2.913566077099    -1.588771458520     1.241707692455     1.007825032230
         H           -1.424386077099    -2.347821458520     0.626107692455     1.007825032230
         H           -1.604396077099    -1.990161458520     2.395197692455     1.007825032230
         C            1.747433922901     0.244228541480    -1.269292307545    12.000000000000
         C            1.261433922901     1.680228541480    -1.258292307545    12.000000000000
         H            2.457433922901     0.104228541480    -2.082292307545     1.007825032230
         H            2.233433922901     0.018228541480    -0.319292307545     1.007825032230
         H            0.898433922901    -0.425771458520    -1.406292307545     1.007825032230
         H            0.554433922901     1.807228541480    -0.443292307545     1.007825032230
         H            0.764903922901     1.932068541480    -2.206992307545     1.007825032230
         H            2.091553922901     2.369828541480    -1.045332307545     1.007825032230

  Running in c1 symmetry.

  Rotational constants: A =      0.44837  B =      0.05377  C =      0.05018 [cm^-1]
  Rotational constants: A =  13441.83878  B =   1611.97086  C =   1504.31608 [MHz]
  Nuclear repulsion =  123.623700971967182

  Charge       = 0
  Multiplicity = 1
  Electrons    = 36
  Nalpha       = 18
  Nbeta        = 18

  ==> Algorithm <==

  SCF Algorithm Type is PK.
  DIIS enabled.
  MOM disabled.
  Fractional occupation disabled.
  Guess Type is SAD.
  Energy threshold   = 1.00e-06
  Density threshold  = 1.00e-10
  Integral threshold = 0.00e+00

  ==> Primary Basis <==

  Basis Set: CC-PVDZ
    Blend: CC-PVDZ
    Number of shells: 60
    Number of basis function: 116
    Number of Cartesian functions: 120
    Spherical Harmonics?: true
    Max angular momentum: 2

  ==> Pre-Iterations <==

   -------------------------------------------------------
    Irrep   Nso     Nmo     Nalpha   Nbeta   Ndocc  Nsocc
   -------------------------------------------------------
     A        116     116       0       0       0       0
   -------------------------------------------------------
    Total     116     116      18      18      18       0
   -------------------------------------------------------

  ==> Integral Setup <==

  Using integral reordering PK algorithm.
  Sizing the integral batches needed.
  Building batch lookup table.
   Calculation information:
      Number of atoms:                  16
      Number of AO shells:              60
      Number of primitives:            148
      Number of atomic orbitals:       120
      Number of basis functions:       116

      Integral cutoff                 1.00e-12
      Number of threads:                 1

	Batch   1 pq = [       0,    6786] index = [             0,23028291] size =     23028291
  Task number: 3
  Buffer size: 11059200
  Buffer per thread: 2
  We computed 1487090 shell quartets total.
  Whereas there are 1675365 unique shell quartets.

  ==> DiskJK: Disk-Based J/K Matrices <==

    J tasked:                  Yes
    K tasked:                  Yes
    wK tasked:                  No
    Memory [MiB]:              375
    Schwarz Cutoff:          1E-12

    OpenMP threads:              1

  Minimum eigenvalue in the overlap matrix is 7.1702937793E-03.
  Using Symmetric Orthogonalization.

  SCF Guess: Superposition of Atomic Densities via on-the-fly atomic UHF.

  ==> Iterations <==

                        Total Energy        Delta E     RMS |[F,P]|

   @RHF iter SAD:  -157.35196735978070   -1.57352e+02   0.00000e+00 
   @RHF iter   1:  -158.30741914214619   -9.55452e-01   4.21548e-03 DIIS
   @RHF iter   2:  -158.44106197623228   -1.33643e-01   1.79613e-03 DIIS
   @RHF iter   3:  -158.46448482202146   -2.34228e-02   3.49760e-04 DIIS
   @RHF iter   4:  -158.46632016335357   -1.83534e-03   3.86829e-05 DIIS
   @RHF iter   5:  -158.46634386726370   -2.37039e-05   6.43767e-06 DIIS
   @RHF iter   6:  -158.46634449004566   -6.22782e-07   1.10723e-06 DIIS
   @RHF iter   7:  -158.46634450205897   -1.20133e-08   3.34572e-07 DIIS
   @RHF iter   8:  -158.46634450308233   -1.02335e-09   4.39664e-08 DIIS
   @RHF iter   9:  -158.46634450311339   -3.10649e-11   8.91501e-09 DIIS
   @RHF iter  10:  -158.46634450311521   -1.81899e-12   2.54037e-09 DIIS
   @RHF iter  11:  -158.46634450311527   -5.68434e-14   6.99392e-10 DIIS
   @RHF iter  12:  -158.46634450311529   -2.84217e-14   1.51459e-10 DIIS
   @RHF iter  13:  -158.46634450311547   -1.70530e-13   2.80498e-11 DIIS
  Energy and wave function converged.


  ==> Post-Iterations <==

    Orbital Energies [Eh]
    ---------------------

    Doubly Occupied:                                                      

       1A    -11.220793     2A    -11.218116     3A    -11.216614  
       4A    -11.215735     5A     -1.021580     6A     -1.015805  
       7A     -0.836801     8A     -0.834956     9A     -0.603656  
      10A     -0.602009    11A     -0.597169    12A     -0.592717  
      13A     -0.502204    14A     -0.495396    15A     -0.490021  
      16A     -0.486962    17A     -0.485692    18A     -0.480414  

    Virtual:                                                              

      19A      0.170277    20A      0.197878    21A      0.226995  
      22A      0.228639    23A      0.242676    24A      0.258260  
      25A      0.263458    26A      0.272205    27A      0.285312  
      28A      0.288573    29A      0.310267    30A      0.339512  
      31A      0.388925    32A      0.414530    33A      0.574328  
      34A      0.596695    35A      0.598915    36A      0.607817  
      37A      0.612190    38A      0.638992    39A      0.669789  
      40A      0.678606    41A      0.700812    42A      0.788516  
      43A      0.842689    44A      0.864913    45A      0.882692  
      46A      0.889145    47A      0.891619    48A      0.895235  
      49A      0.903001    50A      0.905850    51A      0.914367  
      52A      0.921900    53A      0.948411    54A      0.966239  
      55A      0.983917    56A      0.989285    57A      1.125274  
      58A      1.127345    59A      1.131097    60A      1.142894  
      61A      1.239608    62A      1.245643    63A      1.468742  
      64A      1.475824    65A      1.480895    66A      1.488851  
      67A      1.562909    68A      1.586332    69A      1.675039  
      70A      1.684390    71A      1.693995    72A      1.695568  
      73A      1.850674    74A      1.860096    75A      1.866555  
      76A      1.883664    77A      1.896146    78A      1.916447  
      79A      1.939105    80A      1.941427    81A      1.942594  
      82A      1.946098    83A      1.952826    84A      1.958435  
      85A      1.965950    86A      1.971183    87A      1.988478  
      88A      2.034169    89A      2.098517    90A      2.106025  
      91A      2.118753    92A      2.122350    93A      2.283679  
      94A      2.299834    95A      2.308862    96A      2.329524  
      97A      2.446897    98A      2.457350    99A      2.464787  
     100A      2.472023   101A      2.558918   102A      2.570086  
     103A      2.571347   104A      2.580544   105A      2.761416  
     106A      2.766509   107A      2.789314   108A      2.800209  
     109A      2.832798   110A      2.843681   111A      2.853848  
     112A      2.868932   113A      2.933295   114A      2.952596  
     115A      2.960020   116A      2.979522  

    Final Occupation by Irrep:
              A 
    DOCC [    18 ]

  @RHF Final Energy:  -158.46634450311547

   => Energetics <=

    Nuclear Repulsion Energy =            123.6237009719671818
    One-Electron Energy =                -456.3468107021796527
    Two-Electron Energy =                 174.2567652270969916
    Total Energy =                       -158.4663445031154652

Computation Completed


Properties will be evaluated at   0.000000,   0.000000,   0.000000 [a0]

Properties computed using the SCF density matrix

  Nuclear Dipole Moment: [e a0]
     X:     0.0030      Y:     0.0344      Z:     0.0465

  Electronic Dipole Moment: [e a0]
     X:    -0.0128      Y:    -0.0328      Z:    -0.0310

  Dipole Moment: [e a0]
     X:    -0.0098      Y:     0.0016      Z:     0.0156     Total:     0.0185

  Dipole Moment: [D]
     X:    -0.0250      Y:     0.0041      Z:     0.0396     Total:     0.0470


*** tstop() called on ds3 at Tue Apr 28 09:31:00 2020
Module time:
	user time   =       8.46 seconds =       0.14 minutes
	system time =       3.08 seconds =       0.05 minutes
	total time  =         12 seconds =       0.20 minutes
Total time:
	user time   =       8.46 seconds =       0.14 minutes
	system time =       3.08 seconds =       0.05 minutes
	total time  =         12 seconds =       0.20 minutes
                                     G D M A

                                 by Anthony Stone

                           version 2.2.06, 22 June 2011

               Distributed Multipoles from Gaussian wavefunctions


Starting at 9:31:0 on 28 Apr 2020   


Using SCF density matrix from file ./SSI/SSI-175VAL-268LEU-1-dimer.test.10678.fchk


                         Distributed Multipole Analysis

Standard DMA

Positions and radii in angstrom
Multipole moments in atomic units, ea_0^k for rank k

C          x = -1.176566  y = -0.275771  z =  1.149708 angstrom
           Maximum rank =  0   Radius =  0.650 angstrom
                   Q00  =  -0.243682

C          x = -1.832566  y = -1.651771  z =  1.373708 angstrom
           Maximum rank =  0   Radius =  0.650 angstrom
                   Q00  =  -0.236556

H          x = -1.390566  y =  0.081229  z =  0.140708 angstrom
           Maximum rank =  0   Radius =  0.325 angstrom
                   Q00  =   0.079050

H          x = -1.567566  y =  0.439229  z =  1.872708 angstrom
           Maximum rank =  0   Radius =  0.325 angstrom
                   Q00  =   0.079610

H          x = -0.096566  y = -0.362771  z =  1.276708 angstrom
           Maximum rank =  0   Radius =  0.325 angstrom
                   Q00  =   0.080763

H          x = -2.913566  y = -1.588771  z =  1.241708 angstrom
           Maximum rank =  0   Radius =  0.325 angstrom
                   Q00  =   0.082283

H          x = -1.424386  y = -2.347821  z =  0.626108 angstrom
           Maximum rank =  0   Radius =  0.325 angstrom
                   Q00  =   0.078176

H          x = -1.604396  y = -1.990161  z =  2.395198 angstrom
           Maximum rank =  0   Radius =  0.325 angstrom
                   Q00  =   0.080247

C          x =  1.747434  y =  0.244229  z = -1.269292 angstrom
           Maximum rank =  0   Radius =  0.650 angstrom
                   Q00  =  -0.230636

C          x =  1.261434  y =  1.680229  z = -1.258292 angstrom
           Maximum rank =  0   Radius =  0.650 angstrom
                   Q00  =  -0.236833

H          x =  2.457434  y =  0.104229  z = -2.082292 angstrom
           Maximum rank =  0   Radius =  0.325 angstrom
                   Q00  =   0.078049

H          x =  2.233434  y =  0.018229  z = -0.319292 angstrom
           Maximum rank =  0   Radius =  0.325 angstrom
                   Q00  =   0.077803

H          x =  0.898434  y = -0.425771  z = -1.406292 angstrom
           Maximum rank =  0   Radius =  0.325 angstrom
                   Q00  =   0.077930

H          x =  0.554434  y =  1.807229  z = -0.443292 angstrom
           Maximum rank =  0   Radius =  0.325 angstrom
                   Q00  =   0.079407

H          x =  0.764904  y =  1.932069  z = -2.206992 angstrom
           Maximum rank =  0   Radius =  0.325 angstrom
                   Q00  =   0.078028

H          x =  2.091554  y =  2.369829  z = -1.045332 angstrom
           Maximum rank =  0   Radius =  0.325 angstrom
                   Q00  =   0.076361

Total multipoles referred to origin at
           x =   0.000000,  y =    0.000000,  z =    0.000000 angstrom
                   Q00  =  -0.000000

Finished at 9:31:0 on 28 Apr 2020   

  DMA results are available in the Python driver through the
	  variable('DMA DISTRIBUTED MULTIPOLES')
  and
	  variable('DMA TOTAL MULTIPOLES')
  commands.


    Psi4 stopped on: Tuesday, 28 April 2020 09:31AM
    Psi4 wall time for execution: 0:00:11.76

*** Psi4 exiting successfully. Buy a developer a beer!
