
    -----------------------------------------------------------------------
          Psi4: An Open-Source Ab Initio Electronic Structure Package
                               Psi4 1.3.2 release

                         Git: Rev {HEAD} ecbda83 


    R. M. Parrish, L. A. Burns, D. G. A. Smith, A. C. Simmonett,
    A. E. DePrince III, E. G. Hohenstein, U. Bozkaya, A. Yu. Sokolov,
    R. Di Remigio, R. M. Richard, J. F. Gonthier, A. M. James,
    H. R. McAlexander, A. Kumar, M. Saitow, X. Wang, B. P. Pritchard,
    P. Verma, H. F. Schaefer III, K. Patkowski, R. A. King, E. F. Valeev,
    F. A. Evangelista, J. M. Turney, T. D. Crawford, and C. D. Sherrill,
    J. Chem. Theory Comput. 13(7) pp 3185--3197 (2017).
    (doi: 10.1021/acs.jctc.7b00174)


                         Additional Contributions by
    P. Kraus, H. Kruse, M. H. Lechner, M. C. Schieber, R. A. Shaw,
    A. Alenaizan, R. Galvelis, Z. L. Glick, S. Lehtola, and J. P. Misiewicz

    -----------------------------------------------------------------------


    Psi4 started on: Tuesday, 28 April 2020 03:23AM

    Process ID: 22917
    Host:       ds3
    PSIDATADIR: /theoryfs2/ds/metcalf/miniconda2/envs/tf2gpu/share/psi4
    Memory:     500.0 MiB
    Threads:    1
    
  ==> Input File <==

--------------------------------------------------------------------------
import numpy as np
set {scf_type pk
basis cc-pvdz
d_convergence 10
gdma_switch   0
gdma_limit    0
gdma_origin   [ 0.0,  0.0,  0.0 ]
}
molecule test {
    units Angstrom
    0 1
    --
    0 1
    C               -0.388825817471492    -1.901373393502752    -1.396136209594640
    C                0.817174182528508     0.030626606497248    -0.331136209594640
    C                0.149174182528508    -0.493373393502752    -1.426136209594640
    C                1.318174182528508     1.325626606497248    -0.359136209594640
    C                0.006174182528508     0.297626606497248    -2.564136209594641
    C                1.155174182528508     2.112626606497248    -1.485136209594641
    C                0.506174182528508     1.595626606497248    -2.592136209594640
    H                0.973174182528508    -0.575373393502752     0.549863790405360
    H                1.835174182528508     1.722626606497248     0.501863790405360
    H                0.041174182528508    -2.420373393502752    -0.542136209594641
    H               -0.063825817471492    -2.425373393502752    -2.293136209594640
    H               -0.466825817471492    -0.097373393502752    -3.451136209594641
    H                1.520174182528508     3.126626606497247    -1.494136209594640
    H                0.376174182528508     2.201626606497248    -3.475136209594641
    H               -1.482427817471492    -1.966588393502752    -1.297236209594640
    C               -1.286825817471492    -0.574373393502752     2.477863790405360
    C               -0.771825817471492     0.327626606497248     3.603863790405359
    O               -0.876825817471492    -1.916373393502752     2.665863790405359
    H               -2.377825817471492    -0.534373393502752     2.467863790405359
    H               -0.933825817471492    -0.201373393502752     1.520863790405360
    H               -1.036825817471492     1.355626606497248     3.351863790405360
    H               -1.425825817471492    -2.493373393502753     2.096863790405359
    H                0.321608482528508     0.248227606497248     3.693853790405360
    H               -1.278863817471492     0.079516606497248     4.547983790405360

}
e, wfn = energy('scf', return_wfn=True)
gdma(wfn)
dmavals = variable('DMA DISTRIBUTED MULTIPOLES')
charges = np.array(dmavals)
print(charges)
np.save('SSI-080PHE-098SER-1-dimer.npy', np.array(charges))--------------------------------------------------------------------------

*** tstart() called on ds3
*** at Tue Apr 28 03:23:56 2020

   => Loading Basis Set <=

    Name: CC-PVDZ
    Role: ORBITAL
    Keyword: BASIS
    atoms 1-7, 16-17  entry C          line   138 file /theoryfs2/ds/metcalf/miniconda2/envs/tf2gpu/share/psi4/basis/cc-pvdz.gbs 
    atoms 8-15, 19-24 entry H          line    22 file /theoryfs2/ds/metcalf/miniconda2/envs/tf2gpu/share/psi4/basis/cc-pvdz.gbs 
    atoms 18          entry O          line   198 file /theoryfs2/ds/metcalf/miniconda2/envs/tf2gpu/share/psi4/basis/cc-pvdz.gbs 


         ---------------------------------------------------------
                                   SCF
               by Justin Turney, Rob Parrish, Andy Simmonett
                          and Daniel G. A. Smith
                              RHF Reference
                        1 Threads,    500 MiB Core
         ---------------------------------------------------------

  ==> Geometry <==

    Molecular point group: c1
    Full point group: C1

    Geometry (in Angstrom), charge = 0, multiplicity = 1:

       Center              X                  Y                   Z               Mass       
    ------------   -----------------  -----------------  -----------------  -----------------
         C           -0.388825817471    -1.901373393503    -1.396136209595    12.000000000000
         C            0.817174182529     0.030626606497    -0.331136209595    12.000000000000
         C            0.149174182529    -0.493373393503    -1.426136209595    12.000000000000
         C            1.318174182529     1.325626606497    -0.359136209595    12.000000000000
         C            0.006174182529     0.297626606497    -2.564136209595    12.000000000000
         C            1.155174182529     2.112626606497    -1.485136209595    12.000000000000
         C            0.506174182529     1.595626606497    -2.592136209595    12.000000000000
         H            0.973174182529    -0.575373393503     0.549863790405     1.007825032230
         H            1.835174182529     1.722626606497     0.501863790405     1.007825032230
         H            0.041174182529    -2.420373393503    -0.542136209595     1.007825032230
         H           -0.063825817471    -2.425373393503    -2.293136209595     1.007825032230
         H           -0.466825817471    -0.097373393503    -3.451136209595     1.007825032230
         H            1.520174182529     3.126626606497    -1.494136209595     1.007825032230
         H            0.376174182529     2.201626606497    -3.475136209595     1.007825032230
         H           -1.482427817471    -1.966588393503    -1.297236209595     1.007825032230
         C           -1.286825817471    -0.574373393503     2.477863790405    12.000000000000
         C           -0.771825817471     0.327626606497     3.603863790405    12.000000000000
         O           -0.876825817471    -1.916373393503     2.665863790405    15.994914619570
         H           -2.377825817471    -0.534373393503     2.467863790405     1.007825032230
         H           -0.933825817471    -0.201373393503     1.520863790405     1.007825032230
         H           -1.036825817471     1.355626606497     3.351863790405     1.007825032230
         H           -1.425825817471    -2.493373393503     2.096863790405     1.007825032230
         H            0.321608482529     0.248227606497     3.693853790405     1.007825032230
         H           -1.278863817471     0.079516606497     4.547983790405     1.007825032230

  Running in c1 symmetry.

  Rotational constants: A =      0.06407  B =      0.02071  C =      0.01674 [cm^-1]
  Rotational constants: A =   1920.73856  B =    620.99508  C =    501.92576 [MHz]
  Nuclear repulsion =  491.980184913745745

  Charge       = 0
  Multiplicity = 1
  Electrons    = 76
  Nalpha       = 38
  Nbeta        = 38

  ==> Algorithm <==

  SCF Algorithm Type is PK.
  DIIS enabled.
  MOM disabled.
  Fractional occupation disabled.
  Guess Type is SAD.
  Energy threshold   = 1.00e-06
  Density threshold  = 1.00e-10
  Integral threshold = 0.00e+00

  ==> Primary Basis <==

  Basis Set: CC-PVDZ
    Blend: CC-PVDZ
    Number of shells: 102
    Number of basis function: 210
    Number of Cartesian functions: 220
    Spherical Harmonics?: true
    Max angular momentum: 2

  ==> Pre-Iterations <==

   -------------------------------------------------------
    Irrep   Nso     Nmo     Nalpha   Nbeta   Ndocc  Nsocc
   -------------------------------------------------------
     A        210     210       0       0       0       0
   -------------------------------------------------------
    Total     210     210      38      38      38       0
   -------------------------------------------------------

  ==> Integral Setup <==

  Using integral reordering PK algorithm.
  Sizing the integral batches needed.
  Building batch lookup table.
   Calculation information:
      Number of atoms:                  24
      Number of AO shells:             102
      Number of primitives:            290
      Number of atomic orbitals:       220
      Number of basis functions:       210

      Integral cutoff                 1.00e-12
      Number of threads:                 1

	Batch   1 pq = [       0,    9405] index = [             0,44231715] size =     44231715
	Batch   2 pq = [    9405,   13301] index = [      44231715,88464951] size =     44233236
	Batch   3 pq = [   13301,   16290] index = [      88464951,132690195] size =     44225244
	Batch   4 pq = [   16290,   18810] index = [     132690195,176917455] size =     44227260
	Batch   5 pq = [   18810,   21030] index = [     176917455,221140965] size =     44223510
	Batch   6 pq = [   21030,   22155] index = [     221140965,245433090] size =     24292125
  Task number: 23
  Buffer size: 11059200
  Buffer per thread: 2
  We computed 12251162 shell quartets total.
  Whereas there are 13799631 unique shell quartets.

  ==> DiskJK: Disk-Based J/K Matrices <==

    J tasked:                  Yes
    K tasked:                  Yes
    wK tasked:                  No
    Memory [MiB]:              375
    Schwarz Cutoff:          1E-12

    OpenMP threads:              1

  Minimum eigenvalue in the overlap matrix is 2.9737687628E-04.
  Using Symmetric Orthogonalization.

  SCF Guess: Superposition of Atomic Densities via on-the-fly atomic UHF.

  ==> Iterations <==

                        Total Energy        Delta E     RMS |[F,P]|

   @RHF iter SAD:  -422.65297235326483   -4.22653e+02   0.00000e+00 
   @RHF iter   1:  -423.59966183936581   -9.46689e-01   2.95984e-03 DIIS
   @RHF iter   2:  -423.80926634347168   -2.09605e-01   1.34366e-03 DIIS
   @RHF iter   3:  -423.84588526722496   -3.66189e-02   2.84044e-04 DIIS
   @RHF iter   4:  -423.84869454487693   -2.80928e-03   8.62794e-05 DIIS
   @RHF iter   5:  -423.84887110805289   -1.76563e-04   1.68029e-05 DIIS
   @RHF iter   6:  -423.84888081759408   -9.70954e-06   4.36593e-06 DIIS
   @RHF iter   7:  -423.84888154505882   -7.27465e-07   1.54473e-06 DIIS
   @RHF iter   8:  -423.84888164656229   -1.01503e-07   5.65144e-07 DIIS
   @RHF iter   9:  -423.84888166948735   -2.29251e-08   2.89261e-07 DIIS
   @RHF iter  10:  -423.84888167621529   -6.72793e-09   1.20948e-07 DIIS
   @RHF iter  11:  -423.84888167837863   -2.16335e-09   3.92822e-08 DIIS
   @RHF iter  12:  -423.84888167858537   -2.06740e-10   1.48260e-08 DIIS
   @RHF iter  13:  -423.84888167860572   -2.03499e-11   4.22105e-09 DIIS
   @RHF iter  14:  -423.84888167860856   -2.84217e-12   1.33640e-09 DIIS
   @RHF iter  15:  -423.84888167860618    2.38742e-12   6.23657e-10 DIIS
   @RHF iter  16:  -423.84888167860942   -3.24007e-12   2.33112e-10 DIIS
   @RHF iter  17:  -423.84888167860822    1.19371e-12   1.05981e-10 DIIS
   @RHF iter  18:  -423.84888167860805    1.70530e-13   4.73549e-11 DIIS
  Energy and wave function converged.


  ==> Post-Iterations <==

    Orbital Energies [Eh]
    ---------------------

    Doubly Occupied:                                                      

       1A    -20.549483     2A    -11.270058     3A    -11.241158  
       4A    -11.234884     5A    -11.234054     6A    -11.231555  
       7A    -11.231292     8A    -11.230126     9A    -11.229110  
      10A    -11.220761    11A     -1.348362    12A     -1.156905  
      13A     -1.047608    14A     -1.013854    15A     -1.004528  
      16A     -0.934749    17A     -0.830998    18A     -0.825594  
      19A     -0.798218    20A     -0.694598    21A     -0.688261  
      22A     -0.642658    23A     -0.633854    24A     -0.627987  
      25A     -0.582641    26A     -0.580583    27A     -0.565431  
      28A     -0.564038    29A     -0.536259    30A     -0.534281  
      31A     -0.521635    32A     -0.491895    33A     -0.485320  
      34A     -0.482632    35A     -0.473236    36A     -0.432407  
      37A     -0.332817    38A     -0.325397  

    Virtual:                                                              

      39A      0.134226    40A      0.140609    41A      0.164977  
      42A      0.184611    43A      0.198539    44A      0.223433  
      45A      0.224979    46A      0.239511    47A      0.257299  
      48A      0.258643    49A      0.263392    50A      0.274820  
      51A      0.277350    52A      0.284766    53A      0.314512  
      54A      0.321602    55A      0.363712    56A      0.373545  
      57A      0.392846    58A      0.415038    59A      0.452793  
      60A      0.463619    61A      0.475661    62A      0.502369  
      63A      0.559339    64A      0.597824    65A      0.615074  
      66A      0.627334    67A      0.639523    68A      0.666472  
      69A      0.684107    70A      0.691194    71A      0.701427  
      72A      0.712913    73A      0.736064    74A      0.740479  
      75A      0.747950    76A      0.753483    77A      0.754766  
      78A      0.762901    79A      0.772421    80A      0.780028  
      81A      0.789968    82A      0.804352    83A      0.850136  
      84A      0.858930    85A      0.861756    86A      0.866154  
      87A      0.875950    88A      0.882746    89A      0.891164  
      90A      0.891704    91A      0.900813    92A      0.908231  
      93A      0.913438    94A      0.928740    95A      0.933645  
      96A      0.953522    97A      0.981483    98A      0.994117  
      99A      1.001054   100A      1.022505   101A      1.071480  
     102A      1.122751   103A      1.131123   104A      1.133196  
     105A      1.146734   106A      1.154762   107A      1.173443  
     108A      1.188730   109A      1.221089   110A      1.237776  
     111A      1.246500   112A      1.254575   113A      1.264392  
     114A      1.280538   115A      1.296691   116A      1.309826  
     117A      1.322947   118A      1.336694   119A      1.365614  
     120A      1.417668   121A      1.454813   122A      1.483858  
     123A      1.511159   124A      1.524888   125A      1.536138  
     126A      1.544443   127A      1.565173   128A      1.606084  
     129A      1.627823   130A      1.676381   131A      1.682493  
     132A      1.690350   133A      1.733062   134A      1.747452  
     135A      1.760013   136A      1.786529   137A      1.801709  
     138A      1.816962   139A      1.861008   140A      1.865027  
     141A      1.875043   142A      1.884765   143A      1.891489  
     144A      1.899102   145A      1.910437   146A      1.920196  
     147A      1.922131   148A      1.939876   149A      1.944954  
     150A      1.953569   151A      1.960683   152A      1.968357  
     153A      1.982940   154A      1.997668   155A      2.004850  
     156A      2.018341   157A      2.022444   158A      2.039829  
     159A      2.066000   160A      2.079873   161A      2.110790  
     162A      2.125626   163A      2.136768   164A      2.165582  
     165A      2.170864   166A      2.178274   167A      2.193389  
     168A      2.216866   169A      2.253957   170A      2.255435  
     171A      2.278914   172A      2.292991   173A      2.303835  
     174A      2.314952   175A      2.322303   176A      2.325578  
     177A      2.356331   178A      2.454917   179A      2.461501  
     180A      2.478512   181A      2.502373   182A      2.518347  
     183A      2.538466   184A      2.561119   185A      2.578700  
     186A      2.634694   187A      2.735646   188A      2.759748  
     189A      2.762361   190A      2.775002   191A      2.785529  
     192A      2.794284   193A      2.812628   194A      2.826238  
     195A      2.857581   196A      2.878215   197A      2.890154  
     198A      2.957264   199A      2.995191   200A      3.024648  
     201A      3.042260   202A      3.166911   203A      3.213684  
     204A      3.309571   205A      3.322913   206A      3.419861  
     207A      3.458448   208A      3.619401   209A      3.986019  
     210A      4.095213  

    Final Occupation by Irrep:
              A 
    DOCC [    38 ]

  @RHF Final Energy:  -423.84888167860805

   => Energetics <=

    Nuclear Repulsion Energy =            491.9801849137457452
    One-Electron Energy =               -1549.9996770212273987
    Two-Electron Energy =                 634.1706104288736014
    Total Energy =                       -423.8488816786081088

Computation Completed


Properties will be evaluated at   0.000000,   0.000000,   0.000000 [a0]

Properties computed using the SCF density matrix

  Nuclear Dipole Moment: [e a0]
     X:    -3.7529      Y:    -1.8654      Z:     5.8046

  Electronic Dipole Moment: [e a0]
     X:     3.2498      Y:     1.9730      Z:    -6.2452

  Dipole Moment: [e a0]
     X:    -0.5031      Y:     0.1077      Z:    -0.4407     Total:     0.6774

  Dipole Moment: [D]
     X:    -1.2788      Y:     0.2736      Z:    -1.1200     Total:     1.7218


*** tstop() called on ds3 at Tue Apr 28 03:26:04 2020
Module time:
	user time   =      91.42 seconds =       1.52 minutes
	system time =      40.44 seconds =       0.67 minutes
	total time  =        128 seconds =       2.13 minutes
Total time:
	user time   =      91.42 seconds =       1.52 minutes
	system time =      40.44 seconds =       0.67 minutes
	total time  =        128 seconds =       2.13 minutes
                                     G D M A

                                 by Anthony Stone

                           version 2.2.06, 22 June 2011

               Distributed Multipoles from Gaussian wavefunctions


Starting at 3:26:4 on 28 Apr 2020   


Using SCF density matrix from file ./SSI/SSI-080PHE-098SER-1-dimer.test.22917.fchk


                         Distributed Multipole Analysis

Standard DMA

Positions and radii in angstrom
Multipole moments in atomic units, ea_0^k for rank k

C          x = -0.388826  y = -1.901373  z = -1.396136 angstrom
           Maximum rank =  0   Radius =  0.650 angstrom
                   Q00  =  -0.200955

C          x =  0.817174  y =  0.030627  z = -0.331136 angstrom
           Maximum rank =  0   Radius =  0.650 angstrom
                   Q00  =  -0.043621

C          x =  0.149174  y = -0.493373  z = -1.426136 angstrom
           Maximum rank =  0   Radius =  0.650 angstrom
                   Q00  =  -0.107358

C          x =  1.318174  y =  1.325627  z = -0.359136 angstrom
           Maximum rank =  0   Radius =  0.650 angstrom
                   Q00  =  -0.022152

C          x =  0.006174  y =  0.297627  z = -2.564136 angstrom
           Maximum rank =  0   Radius =  0.650 angstrom
                   Q00  =  -0.074924

C          x =  1.155174  y =  2.112627  z = -1.485136 angstrom
           Maximum rank =  0   Radius =  0.650 angstrom
                   Q00  =  -0.074495

C          x =  0.506174  y =  1.595627  z = -2.592136 angstrom
           Maximum rank =  0   Radius =  0.650 angstrom
                   Q00  =  -0.073993

H          x =  0.973174  y = -0.575373  z =  0.549864 angstrom
           Maximum rank =  0   Radius =  0.325 angstrom
                   Q00  =   0.059858

H          x =  1.835174  y =  1.722627  z =  0.501864 angstrom
           Maximum rank =  0   Radius =  0.325 angstrom
                   Q00  =   0.063779

H          x =  0.041174  y = -2.420373  z = -0.542136 angstrom
           Maximum rank =  0   Radius =  0.325 angstrom
                   Q00  =   0.097521

H          x = -0.063826  y = -2.425373  z = -2.293136 angstrom
           Maximum rank =  0   Radius =  0.325 angstrom
                   Q00  =   0.104276

H          x = -0.466826  y = -0.097373  z = -3.451136 angstrom
           Maximum rank =  0   Radius =  0.325 angstrom
                   Q00  =   0.054550

H          x =  1.520174  y =  3.126627  z = -1.494136 angstrom
           Maximum rank =  0   Radius =  0.325 angstrom
                   Q00  =   0.059925

H          x =  0.376174  y =  2.201627  z = -3.475136 angstrom
           Maximum rank =  0   Radius =  0.325 angstrom
                   Q00  =   0.063230

H          x = -1.482428  y = -1.966588  z = -1.297236 angstrom
           Maximum rank =  0   Radius =  0.325 angstrom
                   Q00  =   0.098195

C          x = -1.286826  y = -0.574373  z =  2.477864 angstrom
           Maximum rank =  0   Radius =  0.650 angstrom
                   Q00  =   0.096264

C          x = -0.771826  y =  0.327627  z =  3.603864 angstrom
           Maximum rank =  0   Radius =  0.650 angstrom
                   Q00  =  -0.245638

O          x = -0.876826  y = -1.916373  z =  2.665864 angstrom
           Maximum rank =  0   Radius =  0.650 angstrom
                   Q00  =  -0.598751

H          x = -2.377826  y = -0.534373  z =  2.467864 angstrom
           Maximum rank =  0   Radius =  0.325 angstrom
                   Q00  =   0.039527

H          x = -0.933826  y = -0.201373  z =  1.520864 angstrom
           Maximum rank =  0   Radius =  0.325 angstrom
                   Q00  =   0.044984

H          x = -1.036826  y =  1.355627  z =  3.351864 angstrom
           Maximum rank =  0   Radius =  0.325 angstrom
                   Q00  =   0.085082

H          x = -1.425826  y = -2.493373  z =  2.096864 angstrom
           Maximum rank =  0   Radius =  0.325 angstrom
                   Q00  =   0.393949

H          x =  0.321608  y =  0.248228  z =  3.693854 angstrom
           Maximum rank =  0   Radius =  0.325 angstrom
                   Q00  =   0.091944

H          x = -1.278864  y =  0.079517  z =  4.547984 angstrom
           Maximum rank =  0   Radius =  0.325 angstrom
                   Q00  =   0.088804

Total multipoles referred to origin at
           x =   0.000000,  y =    0.000000,  z =    0.000000 angstrom
                   Q00  =  -0.000000

Finished at 3:26:4 on 28 Apr 2020   

  DMA results are available in the Python driver through the
	  variable('DMA DISTRIBUTED MULTIPOLES')
  and
	  variable('DMA TOTAL MULTIPOLES')
  commands.


    Psi4 stopped on: Tuesday, 28 April 2020 03:26AM
    Psi4 wall time for execution: 0:02:07.42

*** Psi4 exiting successfully. Buy a developer a beer!
