
    -----------------------------------------------------------------------
          Psi4: An Open-Source Ab Initio Electronic Structure Package
                               Psi4 1.3.2 release

                         Git: Rev {HEAD} ecbda83 


    R. M. Parrish, L. A. Burns, D. G. A. Smith, A. C. Simmonett,
    A. E. DePrince III, E. G. Hohenstein, U. Bozkaya, A. Yu. Sokolov,
    R. Di Remigio, R. M. Richard, J. F. Gonthier, A. M. James,
    H. R. McAlexander, A. Kumar, M. Saitow, X. Wang, B. P. Pritchard,
    P. Verma, H. F. Schaefer III, K. Patkowski, R. A. King, E. F. Valeev,
    F. A. Evangelista, J. M. Turney, T. D. Crawford, and C. D. Sherrill,
    J. Chem. Theory Comput. 13(7) pp 3185--3197 (2017).
    (doi: 10.1021/acs.jctc.7b00174)


                         Additional Contributions by
    P. Kraus, H. Kruse, M. H. Lechner, M. C. Schieber, R. A. Shaw,
    A. Alenaizan, R. Galvelis, Z. L. Glick, S. Lehtola, and J. P. Misiewicz

    -----------------------------------------------------------------------


    Psi4 started on: Monday, 27 April 2020 11:06PM

    Process ID: 1082
    Host:       ds3
    PSIDATADIR: /theoryfs2/ds/metcalf/miniconda2/envs/tf2gpu/share/psi4
    Memory:     500.0 MiB
    Threads:    1
    
  ==> Input File <==

--------------------------------------------------------------------------
import numpy as np
set {scf_type pk
basis cc-pvdz
d_convergence 10
gdma_switch   0
gdma_limit    0
gdma_origin   [ 0.0,  0.0,  0.0 ]
}
molecule test {
    units Angstrom
    0 1
    --
    0 1
    C                2.711653993984017    -0.632379020041258    -0.692530983811627
    C                4.097653993984016    -0.465379020041258    -1.314530983811627
    H                2.775653993984016    -0.867379020041258     0.366469016188373
    H                2.150653993984016     0.296620979958742    -0.788530983811627
    H                2.152653993984016    -1.413379020041258    -1.210530983811627
    H                4.685653993984017     0.212620979958742    -0.697530983811627
    H                4.582743993984017    -1.450694020041258    -1.376518983811627
    H                4.021783993984016    -0.033274020041258    -2.323256983811627
    C               -0.097346006015984    -0.087379020041258     2.545469016188373
    C               -0.626346006015984    -0.938379020041258     0.235469016188373
    C               -0.708346006015984     0.086620979958742     1.179469016188373
    C               -1.213346006015984    -0.798379020041258    -1.025530983811627
    C               -1.892346006015984     0.367620979958742    -1.351530983811627
    C               -1.388346006015984     1.255620979958742     0.847469016188373
    C               -1.981346006015984     1.397620979958742    -0.415530983811627
    H               -0.069346006015984    -1.831379020041258     0.465469016188373
    H               -1.130346006015984    -1.594379020041258    -1.753530983811627
    H                0.152653993984016     0.891620979958742     2.943469016188373
    H                0.834653993984017    -0.643379020041258     2.444469016188373
    H               -2.348346006015984     0.477620979958742    -2.326530983811627
    H               -1.473346006015984     2.055620979958742     1.568469016188373
    H               -2.509346006015983     2.306620979958742    -0.664530983811627
    H               -0.750666006015984    -0.616637020041258     3.254729016188373

}
e, wfn = energy('scf', return_wfn=True)
gdma(wfn)
dmavals = variable('DMA DISTRIBUTED MULTIPOLES')
charges = np.array(dmavals)
print(charges)
np.save('SSI-112LEU-142PHE-1-dimer.npy', np.array(charges))--------------------------------------------------------------------------

*** tstart() called on ds3
*** at Mon Apr 27 23:06:35 2020

   => Loading Basis Set <=

    Name: CC-PVDZ
    Role: ORBITAL
    Keyword: BASIS
    atoms 1-2, 9-15  entry C          line   138 file /theoryfs2/ds/metcalf/miniconda2/envs/tf2gpu/share/psi4/basis/cc-pvdz.gbs 
    atoms 3-8, 16-23 entry H          line    22 file /theoryfs2/ds/metcalf/miniconda2/envs/tf2gpu/share/psi4/basis/cc-pvdz.gbs 


         ---------------------------------------------------------
                                   SCF
               by Justin Turney, Rob Parrish, Andy Simmonett
                          and Daniel G. A. Smith
                              RHF Reference
                        1 Threads,    500 MiB Core
         ---------------------------------------------------------

  ==> Geometry <==

    Molecular point group: c1
    Full point group: C1

    Geometry (in Angstrom), charge = 0, multiplicity = 1:

       Center              X                  Y                   Z               Mass       
    ------------   -----------------  -----------------  -----------------  -----------------
         C            2.711653993984    -0.632379020041    -0.692530983812    12.000000000000
         C            4.097653993984    -0.465379020041    -1.314530983812    12.000000000000
         H            2.775653993984    -0.867379020041     0.366469016188     1.007825032230
         H            2.150653993984     0.296620979959    -0.788530983812     1.007825032230
         H            2.152653993984    -1.413379020041    -1.210530983812     1.007825032230
         H            4.685653993984     0.212620979959    -0.697530983812     1.007825032230
         H            4.582743993984    -1.450694020041    -1.376518983812     1.007825032230
         H            4.021783993984    -0.033274020041    -2.323256983812     1.007825032230
         C           -0.097346006016    -0.087379020041     2.545469016188    12.000000000000
         C           -0.626346006016    -0.938379020041     0.235469016188    12.000000000000
         C           -0.708346006016     0.086620979959     1.179469016188    12.000000000000
         C           -1.213346006016    -0.798379020041    -1.025530983812    12.000000000000
         C           -1.892346006016     0.367620979959    -1.351530983812    12.000000000000
         C           -1.388346006016     1.255620979959     0.847469016188    12.000000000000
         C           -1.981346006016     1.397620979959    -0.415530983812    12.000000000000
         H           -0.069346006016    -1.831379020041     0.465469016188     1.007825032230
         H           -1.130346006016    -1.594379020041    -1.753530983812     1.007825032230
         H            0.152653993984     0.891620979959     2.943469016188     1.007825032230
         H            0.834653993984    -0.643379020041     2.444469016188     1.007825032230
         H           -2.348346006016     0.477620979959    -2.326530983812     1.007825032230
         H           -1.473346006016     2.055620979959     1.568469016188     1.007825032230
         H           -2.509346006016     2.306620979959    -0.664530983812     1.007825032230
         H           -0.750666006016    -0.616637020041     3.254729016188     1.007825032230

  Running in c1 symmetry.

  Rotational constants: A =      0.06395  B =      0.02656  C =      0.02207 [cm^-1]
  Rotational constants: A =   1917.13439  B =    796.36340  C =    661.59271 [MHz]
  Nuclear repulsion =  408.813974925659807

  Charge       = 0
  Multiplicity = 1
  Electrons    = 68
  Nalpha       = 34
  Nbeta        = 34

  ==> Algorithm <==

  SCF Algorithm Type is PK.
  DIIS enabled.
  MOM disabled.
  Fractional occupation disabled.
  Guess Type is SAD.
  Energy threshold   = 1.00e-06
  Density threshold  = 1.00e-10
  Integral threshold = 0.00e+00

  ==> Primary Basis <==

  Basis Set: CC-PVDZ
    Blend: CC-PVDZ
    Number of shells: 96
    Number of basis function: 196
    Number of Cartesian functions: 205
    Spherical Harmonics?: true
    Max angular momentum: 2

  ==> Pre-Iterations <==

   -------------------------------------------------------
    Irrep   Nso     Nmo     Nalpha   Nbeta   Ndocc  Nsocc
   -------------------------------------------------------
     A        196     196       0       0       0       0
   -------------------------------------------------------
    Total     196     196      34      34      34       0
   -------------------------------------------------------

  ==> Integral Setup <==

  Using integral reordering PK algorithm.
  Sizing the integral batches needed.
  Building batch lookup table.
   Calculation information:
      Number of atoms:                  23
      Number of AO shells:              96
      Number of primitives:            268
      Number of atomic orbitals:       205
      Number of basis functions:       196

      Integral cutoff                 1.00e-12
      Number of threads:                 1

	Batch   1 pq = [       0,    9405] index = [             0,44231715] size =     44231715
	Batch   2 pq = [    9405,   13301] index = [      44231715,88464951] size =     44233236
	Batch   3 pq = [   13301,   16290] index = [      88464951,132690195] size =     44225244
	Batch   4 pq = [   16290,   18810] index = [     132690195,176917455] size =     44227260
	Batch   5 pq = [   18810,   19306] index = [     176917455,186370471] size =      9453016
  Task number: 17
  Buffer size: 11059200
  Buffer per thread: 2
  We computed 9598413 shell quartets total.
  Whereas there are 10841496 unique shell quartets.

  ==> DiskJK: Disk-Based J/K Matrices <==

    J tasked:                  Yes
    K tasked:                  Yes
    wK tasked:                  No
    Memory [MiB]:              375
    Schwarz Cutoff:          1E-12

    OpenMP threads:              1

  Minimum eigenvalue in the overlap matrix is 3.1490879305E-04.
  Using Symmetric Orthogonalization.

  SCF Guess: Superposition of Atomic Densities via on-the-fly atomic UHF.

  ==> Iterations <==

                        Total Energy        Delta E     RMS |[F,P]|

   @RHF iter SAD:  -347.83937383858381   -3.47839e+02   0.00000e+00 
   @RHF iter   1:  -348.76795135774540   -9.28578e-01   2.88927e-03 DIIS
   @RHF iter   2:  -348.96015858636082   -1.92207e-01   1.19387e-03 DIIS
   @RHF iter   3:  -348.99004156775993   -2.98830e-02   2.57748e-04 DIIS
   @RHF iter   4:  -348.99250278297626   -2.46122e-03   5.34158e-05 DIIS
   @RHF iter   5:  -348.99257699639293   -7.42134e-05   1.82852e-05 DIIS
   @RHF iter   6:  -348.99258510833954   -8.11195e-06   4.87711e-06 DIIS
   @RHF iter   7:  -348.99258578544197   -6.77102e-07   1.24923e-06 DIIS
   @RHF iter   8:  -348.99258583595355   -5.05116e-08   3.06785e-07 DIIS
   @RHF iter   9:  -348.99258584143001   -5.47647e-09   1.32394e-07 DIIS
   @RHF iter  10:  -348.99258584255466   -1.12465e-09   6.08262e-08 DIIS
   @RHF iter  11:  -348.99258584297138   -4.16719e-10   2.42118e-08 DIIS
   @RHF iter  12:  -348.99258584304067   -6.92921e-11   1.04012e-08 DIIS
   @RHF iter  13:  -348.99258584304971   -9.03810e-12   4.01721e-09 DIIS
   @RHF iter  14:  -348.99258584304937    3.41061e-13   1.01942e-09 DIIS
   @RHF iter  15:  -348.99258584305193   -2.55795e-12   3.99017e-10 DIIS
   @RHF iter  16:  -348.99258584305090    1.02318e-12   1.18823e-10 DIIS
   @RHF iter  17:  -348.99258584304840    2.50111e-12   4.75046e-11 DIIS
  Energy and wave function converged.


  ==> Post-Iterations <==

    Orbital Energies [Eh]
    ---------------------

    Doubly Occupied:                                                      

       1A    -11.239818     2A    -11.236136     3A    -11.234995  
       4A    -11.231196     5A    -11.231039     6A    -11.229662  
       7A    -11.228585     8A    -11.215835     9A    -11.211014  
      10A     -1.150322    11A     -1.043941    12A     -1.014177  
      13A     -1.008208    14A     -0.930976    15A     -0.833504  
      16A     -0.824505    17A     -0.793462    18A     -0.689818  
      19A     -0.630150    20A     -0.629593    21A     -0.595667  
      22A     -0.591678    23A     -0.580334    24A     -0.576704  
      25A     -0.562334    26A     -0.535194    27A     -0.499334  
      28A     -0.486636    29A     -0.484024    30A     -0.482607  
      31A     -0.480843    32A     -0.476131    33A     -0.329290  
      34A     -0.322012  

    Virtual:                                                              

      35A      0.135181    36A      0.141208    37A      0.173763  
      38A      0.195964    39A      0.199241    40A      0.213667  
      41A      0.236465    42A      0.244173    43A      0.257253  
      44A      0.257925    45A      0.268697    46A      0.276406  
      47A      0.283114    48A      0.289184    49A      0.302656  
      50A      0.339787    51A      0.364040    52A      0.381055  
      53A      0.403012    54A      0.451856    55A      0.462152  
      56A      0.482457    57A      0.492578    58A      0.562390  
      59A      0.575122    60A      0.595904    61A      0.599883  
      62A      0.605191    63A      0.650746    64A      0.668854  
      65A      0.679998    66A      0.687556    67A      0.701788  
      68A      0.710945    69A      0.726806    70A      0.740863  
      71A      0.742755    72A      0.746154    73A      0.767930  
      74A      0.772583    75A      0.785219    76A      0.798641  
      77A      0.834815    78A      0.854810    79A      0.862889  
      80A      0.866786    81A      0.878602    82A      0.893528  
      83A      0.896556    84A      0.897854    85A      0.898857  
      86A      0.915120    87A      0.921376    88A      0.923060  
      89A      0.927578    90A      0.942331    91A      0.962833  
      92A      0.964805    93A      0.998015    94A      1.010614  
      95A      1.028494    96A      1.051136    97A      1.120603  
      98A      1.126604    99A      1.133797   100A      1.141456  
     101A      1.150298   102A      1.156462   103A      1.188057  
     104A      1.214770   105A      1.240847   106A      1.246715  
     107A      1.253992   108A      1.271845   109A      1.303150  
     110A      1.307876   111A      1.323688   112A      1.360513  
     113A      1.414514   114A      1.479062   115A      1.482376  
     116A      1.510622   117A      1.521713   118A      1.559211  
     119A      1.588813   120A      1.607726   121A      1.677831  
     122A      1.683528   123A      1.702390   124A      1.702991  
     125A      1.735602   126A      1.749376   127A      1.757996  
     128A      1.798970   129A      1.808938   130A      1.854423  
     131A      1.870915   132A      1.873925   133A      1.881617  
     134A      1.903278   135A      1.908233   136A      1.914386  
     137A      1.921355   138A      1.928114   139A      1.938867  
     140A      1.941750   141A      1.946978   142A      1.949108  
     143A      1.956434   144A      1.969793   145A      1.978998  
     146A      1.983041   147A      1.997755   148A      2.038563  
     149A      2.040040   150A      2.069225   151A      2.078893  
     152A      2.107131   153A      2.110175   154A      2.128172  
     155A      2.143659   156A      2.153011   157A      2.162829  
     158A      2.174591   159A      2.179636   160A      2.258819  
     161A      2.276191   162A      2.294770   163A      2.299649  
     164A      2.309804   165A      2.314415   166A      2.320584  
     167A      2.372344   168A      2.451186   169A      2.460672  
     170A      2.473097   171A      2.482309   172A      2.499244  
     173A      2.539814   174A      2.565545   175A      2.584869  
     176A      2.619918   177A      2.738877   178A      2.753502  
     179A      2.769322   180A      2.775599   181A      2.783003  
     182A      2.794333   183A      2.815622   184A      2.849300  
     185A      2.853669   186A      2.864265   187A      2.878422  
     188A      2.956975   189A      2.963881   190A      2.980600  
     191A      3.009548   192A      3.027324   193A      3.150544  
     194A      3.194938   195A      3.294768   196A      3.960024  

    Final Occupation by Irrep:
              A 
    DOCC [    34 ]

  @RHF Final Energy:  -348.99258584304840

   => Energetics <=

    Nuclear Repulsion Energy =            408.8139749256598066
    One-Electron Energy =               -1280.3936774080709711
    Two-Electron Energy =                 522.5871166393627618
    Total Energy =                       -348.9925858430484595

Computation Completed


Properties will be evaluated at   0.000000,   0.000000,   0.000000 [a0]

Properties computed using the SCF density matrix

  Nuclear Dipole Moment: [e a0]
     X:    12.2575      Y:    -2.0716      Z:    -0.0918

  Electronic Dipole Moment: [e a0]
     X:   -12.2440      Y:     2.0799      Z:     0.2021

  Dipole Moment: [e a0]
     X:     0.0134      Y:     0.0083      Z:     0.1103     Total:     0.1114

  Dipole Moment: [D]
     X:     0.0342      Y:     0.0212      Z:     0.2804     Total:     0.2832


*** tstop() called on ds3 at Mon Apr 27 23:08:16 2020
Module time:
	user time   =      71.28 seconds =       1.19 minutes
	system time =      33.58 seconds =       0.56 minutes
	total time  =        101 seconds =       1.68 minutes
Total time:
	user time   =      71.28 seconds =       1.19 minutes
	system time =      33.58 seconds =       0.56 minutes
	total time  =        101 seconds =       1.68 minutes
                                     G D M A

                                 by Anthony Stone

                           version 2.2.06, 22 June 2011

               Distributed Multipoles from Gaussian wavefunctions


Starting at 23:8:16 on 27 Apr 2020  


Using SCF density matrix from file ./SSI/SSI-112LEU-142PHE-1-dimer.test.1082.fchk


                         Distributed Multipole Analysis

Standard DMA

Positions and radii in angstrom
Multipole moments in atomic units, ea_0^k for rank k

C          x =  2.711654  y = -0.632379  z = -0.692531 angstrom
           Maximum rank =  0   Radius =  0.650 angstrom
                   Q00  =  -0.246826

C          x =  4.097654  y = -0.465379  z = -1.314531 angstrom
           Maximum rank =  0   Radius =  0.650 angstrom
                   Q00  =  -0.224436

H          x =  2.775654  y = -0.867379  z =  0.366469 angstrom
           Maximum rank =  0   Radius =  0.325 angstrom
                   Q00  =   0.074496

H          x =  2.150654  y =  0.296621  z = -0.788531 angstrom
           Maximum rank =  0   Radius =  0.325 angstrom
                   Q00  =   0.086076

H          x =  2.152654  y = -1.413379  z = -1.210531 angstrom
           Maximum rank =  0   Radius =  0.325 angstrom
                   Q00  =   0.074588

H          x =  4.685654  y =  0.212621  z = -0.697531 angstrom
           Maximum rank =  0   Radius =  0.325 angstrom
                   Q00  =   0.079354

H          x =  4.582744  y = -1.450694  z = -1.376519 angstrom
           Maximum rank =  0   Radius =  0.325 angstrom
                   Q00  =   0.075110

H          x =  4.021784  y = -0.033274  z = -2.323257 angstrom
           Maximum rank =  0   Radius =  0.325 angstrom
                   Q00  =   0.079566

C          x = -0.097346  y = -0.087379  z =  2.545469 angstrom
           Maximum rank =  0   Radius =  0.650 angstrom
                   Q00  =  -0.203954

C          x = -0.626346  y = -0.938379  z =  0.235469 angstrom
           Maximum rank =  0   Radius =  0.650 angstrom
                   Q00  =   0.007599

C          x = -0.708346  y =  0.086621  z =  1.179469 angstrom
           Maximum rank =  0   Radius =  0.650 angstrom
                   Q00  =  -0.100961

C          x = -1.213346  y = -0.798379  z = -1.025531 angstrom
           Maximum rank =  0   Radius =  0.650 angstrom
                   Q00  =  -0.078798

C          x = -1.892346  y =  0.367621  z = -1.351531 angstrom
           Maximum rank =  0   Radius =  0.650 angstrom
                   Q00  =  -0.078062

C          x = -1.388346  y =  1.255621  z =  0.847469 angstrom
           Maximum rank =  0   Radius =  0.650 angstrom
                   Q00  =  -0.089289

C          x = -1.981346  y =  1.397621  z = -0.415531 angstrom
           Maximum rank =  0   Radius =  0.650 angstrom
                   Q00  =  -0.063233

H          x = -0.069346  y = -1.831379  z =  0.465469 angstrom
           Maximum rank =  0   Radius =  0.325 angstrom
                   Q00  =   0.057482

H          x = -1.130346  y = -1.594379  z = -1.753531 angstrom
           Maximum rank =  0   Radius =  0.325 angstrom
                   Q00  =   0.064275

H          x =  0.152654  y =  0.891621  z =  2.943469 angstrom
           Maximum rank =  0   Radius =  0.325 angstrom
                   Q00  =   0.098393

H          x =  0.834654  y = -0.643379  z =  2.444469 angstrom
           Maximum rank =  0   Radius =  0.325 angstrom
                   Q00  =   0.097768

H          x = -2.348346  y =  0.477621  z = -2.326531 angstrom
           Maximum rank =  0   Radius =  0.325 angstrom
                   Q00  =   0.061721

H          x = -1.473346  y =  2.055621  z =  1.568469 angstrom
           Maximum rank =  0   Radius =  0.325 angstrom
                   Q00  =   0.058058

H          x = -2.509346  y =  2.306621  z = -0.664531 angstrom
           Maximum rank =  0   Radius =  0.325 angstrom
                   Q00  =   0.065623

H          x = -0.750666  y = -0.616637  z =  3.254729 angstrom
           Maximum rank =  0   Radius =  0.325 angstrom
                   Q00  =   0.105451

Total multipoles referred to origin at
           x =   0.000000,  y =    0.000000,  z =    0.000000 angstrom
                   Q00  =  -0.000000

Finished at 23:8:16 on 27 Apr 2020  

  DMA results are available in the Python driver through the
	  variable('DMA DISTRIBUTED MULTIPOLES')
  and
	  variable('DMA TOTAL MULTIPOLES')
  commands.


    Psi4 stopped on: Monday, 27 April 2020 11:08PM
    Psi4 wall time for execution: 0:01:40.91

*** Psi4 exiting successfully. Buy a developer a beer!
