
    -----------------------------------------------------------------------
          Psi4: An Open-Source Ab Initio Electronic Structure Package
                               Psi4 1.3.2 release

                         Git: Rev {HEAD} ecbda83 


    R. M. Parrish, L. A. Burns, D. G. A. Smith, A. C. Simmonett,
    A. E. DePrince III, E. G. Hohenstein, U. Bozkaya, A. Yu. Sokolov,
    R. Di Remigio, R. M. Richard, J. F. Gonthier, A. M. James,
    H. R. McAlexander, A. Kumar, M. Saitow, X. Wang, B. P. Pritchard,
    P. Verma, H. F. Schaefer III, K. Patkowski, R. A. King, E. F. Valeev,
    F. A. Evangelista, J. M. Turney, T. D. Crawford, and C. D. Sherrill,
    J. Chem. Theory Comput. 13(7) pp 3185--3197 (2017).
    (doi: 10.1021/acs.jctc.7b00174)


                         Additional Contributions by
    P. Kraus, H. Kruse, M. H. Lechner, M. C. Schieber, R. A. Shaw,
    A. Alenaizan, R. Galvelis, Z. L. Glick, S. Lehtola, and J. P. Misiewicz

    -----------------------------------------------------------------------


    Psi4 started on: Tuesday, 28 April 2020 01:41AM

    Process ID: 8979
    Host:       ds3
    PSIDATADIR: /theoryfs2/ds/metcalf/miniconda2/envs/tf2gpu/share/psi4
    Memory:     500.0 MiB
    Threads:    1
    
  ==> Input File <==

--------------------------------------------------------------------------
import numpy as np
set {scf_type pk
basis cc-pvdz
d_convergence 10
gdma_switch   0
gdma_limit    0
gdma_origin   [ 0.0,  0.0,  0.0 ]
}
molecule test {
    units Angstrom
    0 1
    --
    0 1
    C               -0.669756867891946    -0.212231969412763    -2.104116639237100
    C                0.298243132108054     0.800768030587237    -2.698116639237100
    H               -0.299756867891946    -1.226231969412763    -2.228116639237100
    H               -0.786756867891946    -0.015231969412763    -1.041116639237100
    H               -1.641756867891946    -0.119231969412763    -2.587116639237100
    H                1.265243132108054     0.676768030587237    -2.209116639237100
    H               -0.053756867891946     1.790768030587237    -2.430116639237101
    H                0.433723132108054     0.704718030587237    -3.785506639237100
    C                0.075243132108054    -0.035231969412763     1.684883360762900
    C                0.293243132108054    -0.564231969412763     3.105883360762900
    H                0.244243132108054    -0.822231969412763     0.957883360762900
    H               -0.931756867891946     0.362768030587237     1.571883360762900
    H                0.779243132108054     0.773768030587237     1.486883360762900
    H                0.077243132108054     0.258768030587237     3.789883360762900
    H                1.340093132108054    -0.862421969412763     3.264583360762900
    H               -0.389956867891946    -1.392091969412763     3.346503360762900

}
e, wfn = energy('scf', return_wfn=True)
gdma(wfn)
dmavals = variable('DMA DISTRIBUTED MULTIPOLES')
charges = np.array(dmavals)
print(charges)
np.save('SSI-102ILE-110ILE-1-dimer.npy', np.array(charges))--------------------------------------------------------------------------

*** tstart() called on ds3
*** at Tue Apr 28 01:41:28 2020

   => Loading Basis Set <=

    Name: CC-PVDZ
    Role: ORBITAL
    Keyword: BASIS
    atoms 1-2, 9-10  entry C          line   138 file /theoryfs2/ds/metcalf/miniconda2/envs/tf2gpu/share/psi4/basis/cc-pvdz.gbs 
    atoms 3-8, 11-16 entry H          line    22 file /theoryfs2/ds/metcalf/miniconda2/envs/tf2gpu/share/psi4/basis/cc-pvdz.gbs 


         ---------------------------------------------------------
                                   SCF
               by Justin Turney, Rob Parrish, Andy Simmonett
                          and Daniel G. A. Smith
                              RHF Reference
                        1 Threads,    500 MiB Core
         ---------------------------------------------------------

  ==> Geometry <==

    Molecular point group: c1
    Full point group: C1

    Geometry (in Angstrom), charge = 0, multiplicity = 1:

       Center              X                  Y                   Z               Mass       
    ------------   -----------------  -----------------  -----------------  -----------------
         C           -0.669756867892    -0.212231969413    -2.104116639237    12.000000000000
         C            0.298243132108     0.800768030587    -2.698116639237    12.000000000000
         H           -0.299756867892    -1.226231969413    -2.228116639237     1.007825032230
         H           -0.786756867892    -0.015231969413    -1.041116639237     1.007825032230
         H           -1.641756867892    -0.119231969413    -2.587116639237     1.007825032230
         H            1.265243132108     0.676768030587    -2.209116639237     1.007825032230
         H           -0.053756867892     1.790768030587    -2.430116639237     1.007825032230
         H            0.433723132108     0.704718030587    -3.785506639237     1.007825032230
         C            0.075243132108    -0.035231969413     1.684883360763    12.000000000000
         C            0.293243132108    -0.564231969413     3.105883360763    12.000000000000
         H            0.244243132108    -0.822231969413     0.957883360763     1.007825032230
         H           -0.931756867892     0.362768030587     1.571883360763     1.007825032230
         H            0.779243132108     0.773768030587     1.486883360763     1.007825032230
         H            0.077243132108     0.258768030587     3.789883360763     1.007825032230
         H            1.340093132108    -0.862421969413     3.264583360763     1.007825032230
         H           -0.389956867892    -1.392091969413     3.346503360763     1.007825032230

  Running in c1 symmetry.

  Rotational constants: A =      0.58640  B =      0.04353  C =      0.04196 [cm^-1]
  Rotational constants: A =  17579.92907  B =   1304.98634  C =   1257.86835 [MHz]
  Nuclear repulsion =  120.713431994955982

  Charge       = 0
  Multiplicity = 1
  Electrons    = 36
  Nalpha       = 18
  Nbeta        = 18

  ==> Algorithm <==

  SCF Algorithm Type is PK.
  DIIS enabled.
  MOM disabled.
  Fractional occupation disabled.
  Guess Type is SAD.
  Energy threshold   = 1.00e-06
  Density threshold  = 1.00e-10
  Integral threshold = 0.00e+00

  ==> Primary Basis <==

  Basis Set: CC-PVDZ
    Blend: CC-PVDZ
    Number of shells: 60
    Number of basis function: 116
    Number of Cartesian functions: 120
    Spherical Harmonics?: true
    Max angular momentum: 2

  ==> Pre-Iterations <==

   -------------------------------------------------------
    Irrep   Nso     Nmo     Nalpha   Nbeta   Ndocc  Nsocc
   -------------------------------------------------------
     A        116     116       0       0       0       0
   -------------------------------------------------------
    Total     116     116      18      18      18       0
   -------------------------------------------------------

  ==> Integral Setup <==

  Using integral reordering PK algorithm.
  Sizing the integral batches needed.
  Building batch lookup table.
   Calculation information:
      Number of atoms:                  16
      Number of AO shells:              60
      Number of primitives:            148
      Number of atomic orbitals:       120
      Number of basis functions:       116

      Integral cutoff                 1.00e-12
      Number of threads:                 1

	Batch   1 pq = [       0,    6786] index = [             0,23028291] size =     23028291
  Task number: 3
  Buffer size: 11059200
  Buffer per thread: 2
  We computed 1378799 shell quartets total.
  Whereas there are 1675365 unique shell quartets.

  ==> DiskJK: Disk-Based J/K Matrices <==

    J tasked:                  Yes
    K tasked:                  Yes
    wK tasked:                  No
    Memory [MiB]:              375
    Schwarz Cutoff:          1E-12

    OpenMP threads:              1

  Minimum eigenvalue in the overlap matrix is 6.3212215597E-03.
  Using Symmetric Orthogonalization.

  SCF Guess: Superposition of Atomic Densities via on-the-fly atomic UHF.

  ==> Iterations <==

                        Total Energy        Delta E     RMS |[F,P]|

   @RHF iter SAD:  -157.36510268877319   -1.57365e+02   0.00000e+00 
   @RHF iter   1:  -158.30695009398320   -9.41847e-01   4.22308e-03 DIIS
   @RHF iter   2:  -158.44062246619262   -1.33672e-01   1.79861e-03 DIIS
   @RHF iter   3:  -158.46408014998548   -2.34577e-02   3.49945e-04 DIIS
   @RHF iter   4:  -158.46591792469110   -1.83777e-03   3.90262e-05 DIIS
   @RHF iter   5:  -158.46594207069640   -2.41460e-05   6.50676e-06 DIIS
   @RHF iter   6:  -158.46594270279016   -6.32094e-07   1.07726e-06 DIIS
   @RHF iter   7:  -158.46594271446170   -1.16715e-08   3.16584e-07 DIIS
   @RHF iter   8:  -158.46594271535764   -8.95938e-10   4.47815e-08 DIIS
   @RHF iter   9:  -158.46594271539061   -3.29692e-11   9.80682e-09 DIIS
   @RHF iter  10:  -158.46594271539294   -2.33058e-12   2.56217e-09 DIIS
   @RHF iter  11:  -158.46594271539226    6.82121e-13   6.82471e-10 DIIS
   @RHF iter  12:  -158.46594271539288   -6.25278e-13   1.91512e-10 DIIS
   @RHF iter  13:  -158.46594271539294   -5.68434e-14   2.94743e-11 DIIS
  Energy and wave function converged.


  ==> Post-Iterations <==

    Orbital Energies [Eh]
    ---------------------

    Doubly Occupied:                                                      

       1A    -11.220529     2A    -11.217852     3A    -11.215948  
       4A    -11.213689     5A     -1.020193     6A     -1.017878  
       7A     -0.840496     8A     -0.835269     9A     -0.601328  
      10A     -0.599338    11A     -0.597520    12A     -0.594750  
      13A     -0.506970    14A     -0.499221    15A     -0.489332  
      16A     -0.487512    17A     -0.483170    18A     -0.478794  

    Virtual:                                                              

      19A      0.173844    20A      0.194439    21A      0.231056  
      22A      0.232473    23A      0.241150    24A      0.260699  
      25A      0.264784    26A      0.275889    27A      0.280191  
      28A      0.290840    29A      0.299161    30A      0.325618  
      31A      0.392139    32A      0.423528    33A      0.583285  
      34A      0.594822    35A      0.599362    36A      0.603154  
      37A      0.608224    38A      0.654271    39A      0.667052  
      40A      0.684040    41A      0.702453    42A      0.754341  
      43A      0.844718    44A      0.878774    45A      0.888138  
      46A      0.890259    47A      0.893528    48A      0.895687  
      49A      0.897962    50A      0.904960    51A      0.913406  
      52A      0.916556    53A      0.929445    54A      0.953666  
      55A      0.974722    56A      1.014315    57A      1.121570  
      58A      1.130120    59A      1.132456    60A      1.148983  
      61A      1.226501    62A      1.298432    63A      1.459626  
      64A      1.466048    65A      1.474166    66A      1.497803  
      67A      1.574639    68A      1.580039    69A      1.681238  
      70A      1.686650    71A      1.694190    72A      1.701326  
      73A      1.846380    74A      1.865398    75A      1.870523  
      76A      1.880842    77A      1.890395    78A      1.907556  
      79A      1.930879    80A      1.938292    81A      1.947882  
      82A      1.951776    83A      1.958620    84A      1.960263  
      85A      1.968464    86A      1.975933    87A      1.988193  
      88A      2.038170    89A      2.084971    90A      2.090906  
      91A      2.119515    92A      2.134081    93A      2.299365  
      94A      2.304174    95A      2.319168    96A      2.339838  
      97A      2.441874    98A      2.460507    99A      2.471180  
     100A      2.483080   101A      2.548245   102A      2.562513  
     103A      2.576017   104A      2.590958   105A      2.755661  
     106A      2.773177   107A      2.785560   108A      2.806983  
     109A      2.846774   110A      2.853787   111A      2.863056  
     112A      2.882804   113A      2.937742   114A      2.946355  
     115A      2.969679   116A      2.985678  

    Final Occupation by Irrep:
              A 
    DOCC [    18 ]

  @RHF Final Energy:  -158.46594271539294

   => Energetics <=

    Nuclear Repulsion Energy =            120.7134319949559824
    One-Electron Energy =                -450.5191755230760009
    Two-Electron Energy =                 171.3398008127271055
    Total Energy =                       -158.4659427153929414

Computation Completed


Properties will be evaluated at   0.000000,   0.000000,   0.000000 [a0]

Properties computed using the SCF density matrix

  Nuclear Dipole Moment: [e a0]
     X:     0.0338      Y:     0.1220      Z:     0.1280

  Electronic Dipole Moment: [e a0]
     X:    -0.0331      Y:    -0.1087      Z:    -0.0915

  Dipole Moment: [e a0]
     X:     0.0007      Y:     0.0133      Z:     0.0365     Total:     0.0388

  Dipole Moment: [D]
     X:     0.0019      Y:     0.0338      Z:     0.0927     Total:     0.0987


*** tstop() called on ds3 at Tue Apr 28 01:41:37 2020
Module time:
	user time   =       6.61 seconds =       0.11 minutes
	system time =       2.73 seconds =       0.05 minutes
	total time  =          9 seconds =       0.15 minutes
Total time:
	user time   =       6.61 seconds =       0.11 minutes
	system time =       2.73 seconds =       0.05 minutes
	total time  =          9 seconds =       0.15 minutes
                                     G D M A

                                 by Anthony Stone

                           version 2.2.06, 22 June 2011

               Distributed Multipoles from Gaussian wavefunctions


Starting at 1:41:37 on 28 Apr 2020  


Using SCF density matrix from file ./SSI/SSI-102ILE-110ILE-1-dimer.test.8979.fchk


                         Distributed Multipole Analysis

Standard DMA

Positions and radii in angstrom
Multipole moments in atomic units, ea_0^k for rank k

C          x = -0.669757  y = -0.212232  z = -2.104117 angstrom
           Maximum rank =  0   Radius =  0.650 angstrom
                   Q00  =  -0.235677

C          x =  0.298243  y =  0.800768  z = -2.698117 angstrom
           Maximum rank =  0   Radius =  0.650 angstrom
                   Q00  =  -0.237962

H          x = -0.299757  y = -1.226232  z = -2.228117 angstrom
           Maximum rank =  0   Radius =  0.325 angstrom
                   Q00  =   0.077337

H          x = -0.786757  y = -0.015232  z = -1.041117 angstrom
           Maximum rank =  0   Radius =  0.325 angstrom
                   Q00  =   0.084823

H          x = -1.641757  y = -0.119232  z = -2.587117 angstrom
           Maximum rank =  0   Radius =  0.325 angstrom
                   Q00  =   0.076191

H          x =  1.265243  y =  0.676768  z = -2.209117 angstrom
           Maximum rank =  0   Radius =  0.325 angstrom
                   Q00  =   0.074339

H          x = -0.053757  y =  1.790768  z = -2.430117 angstrom
           Maximum rank =  0   Radius =  0.325 angstrom
                   Q00  =   0.077086

H          x =  0.433723  y =  0.704718  z = -3.785507 angstrom
           Maximum rank =  0   Radius =  0.325 angstrom
                   Q00  =   0.081907

C          x =  0.075243  y = -0.035232  z =  1.684883 angstrom
           Maximum rank =  0   Radius =  0.650 angstrom
                   Q00  =  -0.244226

C          x =  0.293243  y = -0.564232  z =  3.105883 angstrom
           Maximum rank =  0   Radius =  0.650 angstrom
                   Q00  =  -0.233589

H          x =  0.244243  y = -0.822232  z =  0.957883 angstrom
           Maximum rank =  0   Radius =  0.325 angstrom
                   Q00  =   0.080080

H          x = -0.931757  y =  0.362768  z =  1.571883 angstrom
           Maximum rank =  0   Radius =  0.325 angstrom
                   Q00  =   0.078973

H          x =  0.779243  y =  0.773768  z =  1.486883 angstrom
           Maximum rank =  0   Radius =  0.325 angstrom
                   Q00  =   0.080046

H          x =  0.077243  y =  0.258768  z =  3.789883 angstrom
           Maximum rank =  0   Radius =  0.325 angstrom
                   Q00  =   0.076669

H          x =  1.340093  y = -0.862422  z =  3.264583 angstrom
           Maximum rank =  0   Radius =  0.325 angstrom
                   Q00  =   0.082161

H          x = -0.389957  y = -1.392092  z =  3.346503 angstrom
           Maximum rank =  0   Radius =  0.325 angstrom
                   Q00  =   0.081840

Total multipoles referred to origin at
           x =   0.000000,  y =    0.000000,  z =    0.000000 angstrom
                   Q00  =  -0.000000

Finished at 1:41:37 on 28 Apr 2020  

  DMA results are available in the Python driver through the
	  variable('DMA DISTRIBUTED MULTIPOLES')
  and
	  variable('DMA TOTAL MULTIPOLES')
  commands.


    Psi4 stopped on: Tuesday, 28 April 2020 01:41AM
    Psi4 wall time for execution: 0:00:09.35

*** Psi4 exiting successfully. Buy a developer a beer!
