
    -----------------------------------------------------------------------
          Psi4: An Open-Source Ab Initio Electronic Structure Package
                               Psi4 1.3.2 release

                         Git: Rev {HEAD} ecbda83 


    R. M. Parrish, L. A. Burns, D. G. A. Smith, A. C. Simmonett,
    A. E. DePrince III, E. G. Hohenstein, U. Bozkaya, A. Yu. Sokolov,
    R. Di Remigio, R. M. Richard, J. F. Gonthier, A. M. James,
    H. R. McAlexander, A. Kumar, M. Saitow, X. Wang, B. P. Pritchard,
    P. Verma, H. F. Schaefer III, K. Patkowski, R. A. King, E. F. Valeev,
    F. A. Evangelista, J. M. Turney, T. D. Crawford, and C. D. Sherrill,
    J. Chem. Theory Comput. 13(7) pp 3185--3197 (2017).
    (doi: 10.1021/acs.jctc.7b00174)


                         Additional Contributions by
    P. Kraus, H. Kruse, M. H. Lechner, M. C. Schieber, R. A. Shaw,
    A. Alenaizan, R. Galvelis, Z. L. Glick, S. Lehtola, and J. P. Misiewicz

    -----------------------------------------------------------------------


    Psi4 started on: Monday, 27 April 2020 05:47PM

    Process ID: 25425
    Host:       ds3
    PSIDATADIR: /theoryfs2/ds/metcalf/miniconda2/envs/tf2gpu/share/psi4
    Memory:     500.0 MiB
    Threads:    1
    
  ==> Input File <==

--------------------------------------------------------------------------
import numpy as np
set {scf_type pk
basis cc-pvdz
d_convergence 10
gdma_switch   0
gdma_limit    0
gdma_origin   [ 0.0,  0.0,  0.0 ]
}
molecule test {
    units Angstrom
    0 1
    --
    0 1
    C                1.110036717212879     3.315725164413156    -0.509908250592140
    C               -0.674963282787121    -0.087274835586843    -0.494908250592140
    C                0.411036717212879    -0.963274835586843    -0.739908250592140
    C               -0.454963282787121     1.317725164413157    -0.447908250592140
    C                0.844036717212879     1.840725164413157    -0.565908250592140
    C                1.696036717212879    -0.439274835586843    -0.894908250592140
    C                1.895036717212879     0.952725164413157    -0.815908250592140
    H               -1.668963282787121    -0.489274835586843    -0.370908250592140
    H                0.251036717212879    -2.030274835586844    -0.792908250592140
    H               -1.289963282787121     1.981725164413157    -0.272908250592140
    H                2.530036717212879    -1.104274835586843    -1.064908250592140
    H                2.152036717212879     3.478725164413157    -0.240908250592140
    H                0.504036717212879     3.735725164413156     0.289091749407860
    H                2.898036717212879     1.340725164413157    -0.928908250592140
    H                0.901276717212879     3.867955164413157    -1.438058250592140
    C               -1.772963282787121    -2.311274835586843     2.476091749407860
    C               -2.505963282787121    -3.158274835586843     1.419091749407860
    H               -1.530963282787121    -2.933274835586843     3.338091749407860
    H               -0.851963282787121    -1.904274835586843     2.056091749407860
    H               -2.403963282787121    -1.482274835586843     2.796091749407860
    H               -2.756963282787121    -2.492274835586843     0.594091749407860
    H               -3.427667282787120    -3.599714835586843     1.826021749407860
    H               -1.822983282787121    -3.935974835586844     1.046621749407860

}
e, wfn = energy('scf', return_wfn=True)
gdma(wfn)
dmavals = variable('DMA DISTRIBUTED MULTIPOLES')
charges = np.array(dmavals)
print(charges)
np.save('SSI-042PHE-087LEU-1-dimer.npy', np.array(charges))--------------------------------------------------------------------------

*** tstart() called on ds3
*** at Mon Apr 27 17:47:09 2020

   => Loading Basis Set <=

    Name: CC-PVDZ
    Role: ORBITAL
    Keyword: BASIS
    atoms 1-7, 16-17  entry C          line   138 file /theoryfs2/ds/metcalf/miniconda2/envs/tf2gpu/share/psi4/basis/cc-pvdz.gbs 
    atoms 8-15, 18-23 entry H          line    22 file /theoryfs2/ds/metcalf/miniconda2/envs/tf2gpu/share/psi4/basis/cc-pvdz.gbs 


         ---------------------------------------------------------
                                   SCF
               by Justin Turney, Rob Parrish, Andy Simmonett
                          and Daniel G. A. Smith
                              RHF Reference
                        1 Threads,    500 MiB Core
         ---------------------------------------------------------

  ==> Geometry <==

    Molecular point group: c1
    Full point group: C1

    Geometry (in Angstrom), charge = 0, multiplicity = 1:

       Center              X                  Y                   Z               Mass       
    ------------   -----------------  -----------------  -----------------  -----------------
         C            1.110036717213     3.315725164413    -0.509908250592    12.000000000000
         C           -0.674963282787    -0.087274835587    -0.494908250592    12.000000000000
         C            0.411036717213    -0.963274835587    -0.739908250592    12.000000000000
         C           -0.454963282787     1.317725164413    -0.447908250592    12.000000000000
         C            0.844036717213     1.840725164413    -0.565908250592    12.000000000000
         C            1.696036717213    -0.439274835587    -0.894908250592    12.000000000000
         C            1.895036717213     0.952725164413    -0.815908250592    12.000000000000
         H           -1.668963282787    -0.489274835587    -0.370908250592     1.007825032230
         H            0.251036717213    -2.030274835587    -0.792908250592     1.007825032230
         H           -1.289963282787     1.981725164413    -0.272908250592     1.007825032230
         H            2.530036717213    -1.104274835587    -1.064908250592     1.007825032230
         H            2.152036717213     3.478725164413    -0.240908250592     1.007825032230
         H            0.504036717213     3.735725164413     0.289091749408     1.007825032230
         H            2.898036717213     1.340725164413    -0.928908250592     1.007825032230
         H            0.901276717213     3.867955164413    -1.438058250592     1.007825032230
         C           -1.772963282787    -2.311274835587     2.476091749408    12.000000000000
         C           -2.505963282787    -3.158274835587     1.419091749408    12.000000000000
         H           -1.530963282787    -2.933274835587     3.338091749408     1.007825032230
         H           -0.851963282787    -1.904274835587     2.056091749408     1.007825032230
         H           -2.403963282787    -1.482274835587     2.796091749408     1.007825032230
         H           -2.756963282787    -2.492274835587     0.594091749408     1.007825032230
         H           -3.427667282787    -3.599714835587     1.826021749408     1.007825032230
         H           -1.822983282787    -3.935974835587     1.046621749408     1.007825032230

  Running in c1 symmetry.

  Rotational constants: A =      0.09719  B =      0.02051  C =      0.01854 [cm^-1]
  Rotational constants: A =   2913.69421  B =    614.76263  C =    555.87961 [MHz]
  Nuclear repulsion =  400.449556160785164

  Charge       = 0
  Multiplicity = 1
  Electrons    = 68
  Nalpha       = 34
  Nbeta        = 34

  ==> Algorithm <==

  SCF Algorithm Type is PK.
  DIIS enabled.
  MOM disabled.
  Fractional occupation disabled.
  Guess Type is SAD.
  Energy threshold   = 1.00e-06
  Density threshold  = 1.00e-10
  Integral threshold = 0.00e+00

  ==> Primary Basis <==

  Basis Set: CC-PVDZ
    Blend: CC-PVDZ
    Number of shells: 96
    Number of basis function: 196
    Number of Cartesian functions: 205
    Spherical Harmonics?: true
    Max angular momentum: 2

  ==> Pre-Iterations <==

   -------------------------------------------------------
    Irrep   Nso     Nmo     Nalpha   Nbeta   Ndocc  Nsocc
   -------------------------------------------------------
     A        196     196       0       0       0       0
   -------------------------------------------------------
    Total     196     196      34      34      34       0
   -------------------------------------------------------

  ==> Integral Setup <==

  Using integral reordering PK algorithm.
  Sizing the integral batches needed.
  Building batch lookup table.
   Calculation information:
      Number of atoms:                  23
      Number of AO shells:              96
      Number of primitives:            268
      Number of atomic orbitals:       205
      Number of basis functions:       196

      Integral cutoff                 1.00e-12
      Number of threads:                 1

	Batch   1 pq = [       0,    9405] index = [             0,44231715] size =     44231715
	Batch   2 pq = [    9405,   13301] index = [      44231715,88464951] size =     44233236
	Batch   3 pq = [   13301,   16290] index = [      88464951,132690195] size =     44225244
	Batch   4 pq = [   16290,   18810] index = [     132690195,176917455] size =     44227260
	Batch   5 pq = [   18810,   19306] index = [     176917455,186370471] size =      9453016
  Task number: 17
  Buffer size: 11059200
  Buffer per thread: 2
  We computed 8881774 shell quartets total.
  Whereas there are 10841496 unique shell quartets.

  ==> DiskJK: Disk-Based J/K Matrices <==

    J tasked:                  Yes
    K tasked:                  Yes
    wK tasked:                  No
    Memory [MiB]:              375
    Schwarz Cutoff:          1E-12

    OpenMP threads:              1

  Minimum eigenvalue in the overlap matrix is 3.4253345887E-04.
  Using Symmetric Orthogonalization.

  SCF Guess: Superposition of Atomic Densities via on-the-fly atomic UHF.

  ==> Iterations <==

                        Total Energy        Delta E     RMS |[F,P]|

   @RHF iter SAD:  -347.69363569940339   -3.47694e+02   0.00000e+00 
   @RHF iter   1:  -348.77089015910133   -1.07725e+00   2.84233e-03 DIIS
   @RHF iter   2:  -348.95902221011102   -1.88132e-01   1.16355e-03 DIIS
   @RHF iter   3:  -348.98760801821891   -2.85858e-02   2.56190e-04 DIIS
   @RHF iter   4:  -348.99003924565494   -2.43123e-03   5.62056e-05 DIIS
   @RHF iter   5:  -348.99011862312841   -7.93775e-05   1.95679e-05 DIIS
   @RHF iter   6:  -348.99012801998924   -9.39686e-06   4.88772e-06 DIIS
   @RHF iter   7:  -348.99012872911760   -7.09128e-07   1.22971e-06 DIIS
   @RHF iter   8:  -348.99012879095977   -6.18422e-08   3.73944e-07 DIIS
   @RHF iter   9:  -348.99012880222131   -1.12615e-08   1.83134e-07 DIIS
   @RHF iter  10:  -348.99012880537441   -3.15310e-09   8.87942e-08 DIIS
   @RHF iter  11:  -348.99012880643284   -1.05842e-09   3.31274e-08 DIIS
   @RHF iter  12:  -348.99012880655391   -1.21076e-10   1.52961e-08 DIIS
   @RHF iter  13:  -348.99012880657142   -1.75078e-11   4.52628e-09 DIIS
   @RHF iter  14:  -348.99012880657108    3.41061e-13   1.42646e-09 DIIS
   @RHF iter  15:  -348.99012880657097    1.13687e-13   5.88434e-10 DIIS
   @RHF iter  16:  -348.99012880657051    4.54747e-13   2.55993e-10 DIIS
   @RHF iter  17:  -348.99012880657131   -7.95808e-13   9.94569e-11 DIIS
  Energy and wave function converged.


  ==> Post-Iterations <==

    Orbital Energies [Eh]
    ---------------------

    Doubly Occupied:                                                      

       1A    -11.243792     2A    -11.243006     3A    -11.238825  
       4A    -11.237317     5A    -11.236428     6A    -11.233279  
       7A    -11.229754     8A    -11.220259     9A    -11.214178  
      10A     -1.144771    11A     -1.043539    12A     -1.014511  
      13A     -1.004254    14A     -0.931317    15A     -0.834946  
      16A     -0.824679    17A     -0.793047    18A     -0.688125  
      19A     -0.635205    20A     -0.626972    21A     -0.596934  
      22A     -0.596010    23A     -0.578535    24A     -0.577251  
      25A     -0.563208    26A     -0.534756    27A     -0.495365  
      28A     -0.487468    29A     -0.486920    30A     -0.483998  
      31A     -0.482941    32A     -0.478621    33A     -0.327518  
      34A     -0.321686  

    Virtual:                                                              

      35A      0.129987    36A      0.137002    37A      0.169221  
      38A      0.191933    39A      0.209854    40A      0.221676  
      41A      0.230894    42A      0.239669    43A      0.251819  
      44A      0.255993    45A      0.270327    46A      0.275357  
      47A      0.284755    48A      0.290575    49A      0.305823  
      50A      0.349392    51A      0.362419    52A      0.379594  
      53A      0.397572    54A      0.444529    55A      0.464396  
      56A      0.477952    57A      0.487167    58A      0.556212  
      59A      0.588087    60A      0.604695    61A      0.606978  
      62A      0.623916    63A      0.635359    64A      0.657985  
      65A      0.672452    66A      0.679528    67A      0.699541  
      68A      0.713409    69A      0.721207    70A      0.735209  
      71A      0.740301    72A      0.750778    73A      0.753340  
      74A      0.759174    75A      0.779737    76A      0.809535  
      77A      0.837510    78A      0.849714    79A      0.856639  
      80A      0.862830    81A      0.874491    82A      0.877408  
      83A      0.887592    84A      0.897736    85A      0.902405  
      86A      0.908094    87A      0.914247    88A      0.922689  
      89A      0.925491    90A      0.940678    91A      0.954199  
      92A      0.964770    93A      0.982545    94A      0.992561  
      95A      1.024716    96A      1.061116    97A      1.106049  
      98A      1.120580    99A      1.130196   100A      1.138203  
     101A      1.151634   102A      1.173604   103A      1.187913  
     104A      1.228748   105A      1.237561   106A      1.244688  
     107A      1.251803   108A      1.268579   109A      1.287910  
     110A      1.295943   111A      1.319014   112A      1.322533  
     113A      1.412380   114A      1.470574   115A      1.487341  
     116A      1.513139   117A      1.515000   118A      1.548067  
     119A      1.572781   120A      1.600638   121A      1.674991  
     122A      1.682414   123A      1.691971   124A      1.700933  
     125A      1.724523   126A      1.744286   127A      1.754987  
     128A      1.784257   129A      1.801983   130A      1.842649  
     131A      1.868426   132A      1.871156   133A      1.872868  
     134A      1.886659   135A      1.894066   136A      1.903177  
     137A      1.913493   138A      1.920465   139A      1.937279  
     140A      1.937608   141A      1.945521   142A      1.948312  
     143A      1.956650   144A      1.966207   145A      1.970198  
     146A      1.977984   147A      1.988984   148A      1.997076  
     149A      2.036692   150A      2.044037   151A      2.055896  
     152A      2.099425   153A      2.105071   154A      2.128206  
     155A      2.131759   156A      2.145409   157A      2.155996  
     158A      2.158250   159A      2.174664   160A      2.245066  
     161A      2.267685   162A      2.282146   163A      2.286062  
     164A      2.299317   165A      2.313489   166A      2.320350  
     167A      2.332910   168A      2.443141   169A      2.452676  
     170A      2.467374   171A      2.470232   172A      2.490289  
     173A      2.531096   174A      2.561666   175A      2.585453  
     176A      2.609477   177A      2.728639   178A      2.745855  
     179A      2.763908   180A      2.766997   181A      2.773199  
     182A      2.798285   183A      2.805862   184A      2.843340  
     185A      2.851170   186A      2.853401   187A      2.870928  
     188A      2.943644   189A      2.954162   190A      2.961810  
     191A      2.983664   192A      3.003880   193A      3.134081  
     194A      3.170427   195A      3.270640   196A      3.908909  

    Final Occupation by Irrep:
              A 
    DOCC [    34 ]

  @RHF Final Energy:  -348.99012880657131

   => Energetics <=

    Nuclear Repulsion Energy =            400.4495561607851641
    One-Electron Energy =               -1263.5805412083063857
    Two-Electron Energy =                 514.1408562409499154
    Total Energy =                       -348.9901288065713061

Computation Completed


Properties will be evaluated at   0.000000,   0.000000,   0.000000 [a0]

Properties computed using the SCF density matrix

  Nuclear Dipole Moment: [e a0]
     X:    -6.1095      Y:    -5.2187      Z:     6.4091

  Electronic Dipole Moment: [e a0]
     X:     6.1674      Y:     5.3836      Z:    -6.4082

  Dipole Moment: [e a0]
     X:     0.0579      Y:     0.1649      Z:     0.0009     Total:     0.1748

  Dipole Moment: [D]
     X:     0.1472      Y:     0.4192      Z:     0.0023     Total:     0.4443


*** tstop() called on ds3 at Mon Apr 27 17:48:45 2020
Module time:
	user time   =      67.94 seconds =       1.13 minutes
	system time =      31.91 seconds =       0.53 minutes
	total time  =         96 seconds =       1.60 minutes
Total time:
	user time   =      67.94 seconds =       1.13 minutes
	system time =      31.91 seconds =       0.53 minutes
	total time  =         96 seconds =       1.60 minutes
                                     G D M A

                                 by Anthony Stone

                           version 2.2.06, 22 June 2011

               Distributed Multipoles from Gaussian wavefunctions


Starting at 17:48:45 on 27 Apr 2020 


Using SCF density matrix from file ./SSI/SSI-042PHE-087LEU-1-dimer.test.25425.fchk


                         Distributed Multipole Analysis

Standard DMA

Positions and radii in angstrom
Multipole moments in atomic units, ea_0^k for rank k

C          x =  1.110037  y =  3.315725  z = -0.509908 angstrom
           Maximum rank =  0   Radius =  0.650 angstrom
                   Q00  =  -0.205059

C          x = -0.674963  y = -0.087275  z = -0.494908 angstrom
           Maximum rank =  0   Radius =  0.650 angstrom
                   Q00  =  -0.067612

C          x =  0.411037  y = -0.963275  z = -0.739908 angstrom
           Maximum rank =  0   Radius =  0.650 angstrom
                   Q00  =  -0.083056

C          x = -0.454963  y =  1.317725  z = -0.447908 angstrom
           Maximum rank =  0   Radius =  0.650 angstrom
                   Q00  =  -0.099008

C          x =  0.844037  y =  1.840725  z = -0.565908 angstrom
           Maximum rank =  0   Radius =  0.650 angstrom
                   Q00  =  -0.090635

C          x =  1.696037  y = -0.439275  z = -0.894908 angstrom
           Maximum rank =  0   Radius =  0.650 angstrom
                   Q00  =  -0.084991

C          x =  1.895037  y =  0.952725  z = -0.815908 angstrom
           Maximum rank =  0   Radius =  0.650 angstrom
                   Q00  =   0.002585

H          x = -1.668963  y = -0.489275  z = -0.370908 angstrom
           Maximum rank =  0   Radius =  0.325 angstrom
                   Q00  =   0.070223

H          x =  0.251037  y = -2.030275  z = -0.792908 angstrom
           Maximum rank =  0   Radius =  0.325 angstrom
                   Q00  =   0.066069

H          x = -1.289963  y =  1.981725  z = -0.272908 angstrom
           Maximum rank =  0   Radius =  0.325 angstrom
                   Q00  =   0.061276

H          x =  2.530037  y = -1.104275  z = -1.064908 angstrom
           Maximum rank =  0   Radius =  0.325 angstrom
                   Q00  =   0.068088

H          x =  2.152037  y =  3.478725  z = -0.240908 angstrom
           Maximum rank =  0   Radius =  0.325 angstrom
                   Q00  =   0.098695

H          x =  0.504037  y =  3.735725  z =  0.289092 angstrom
           Maximum rank =  0   Radius =  0.325 angstrom
                   Q00  =   0.099313

H          x =  2.898037  y =  1.340725  z = -0.928908 angstrom
           Maximum rank =  0   Radius =  0.325 angstrom
                   Q00  =   0.057801

H          x =  0.901277  y =  3.867955  z = -1.438058 angstrom
           Maximum rank =  0   Radius =  0.325 angstrom
                   Q00  =   0.106231

C          x = -1.772963  y = -2.311275  z =  2.476092 angstrom
           Maximum rank =  0   Radius =  0.650 angstrom
                   Q00  =  -0.240280

C          x = -2.505963  y = -3.158275  z =  1.419092 angstrom
           Maximum rank =  0   Radius =  0.650 angstrom
                   Q00  =  -0.239656

H          x = -1.530963  y = -2.933275  z =  3.338092 angstrom
           Maximum rank =  0   Radius =  0.325 angstrom
                   Q00  =   0.077938

H          x = -0.851963  y = -1.904275  z =  2.056092 angstrom
           Maximum rank =  0   Radius =  0.325 angstrom
                   Q00  =   0.090411

H          x = -2.403963  y = -1.482275  z =  2.796092 angstrom
           Maximum rank =  0   Radius =  0.325 angstrom
                   Q00  =   0.077935

H          x = -2.756963  y = -2.492275  z =  0.594092 angstrom
           Maximum rank =  0   Radius =  0.325 angstrom
                   Q00  =   0.071944

H          x = -3.427667  y = -3.599715  z =  1.826022 angstrom
           Maximum rank =  0   Radius =  0.325 angstrom
                   Q00  =   0.083163

H          x = -1.822983  y = -3.935975  z =  1.046622 angstrom
           Maximum rank =  0   Radius =  0.325 angstrom
                   Q00  =   0.078625

Total multipoles referred to origin at
           x =   0.000000,  y =    0.000000,  z =    0.000000 angstrom
                   Q00  =  -0.000000

Finished at 17:48:45 on 27 Apr 2020 

  DMA results are available in the Python driver through the
	  variable('DMA DISTRIBUTED MULTIPOLES')
  and
	  variable('DMA TOTAL MULTIPOLES')
  commands.


    Psi4 stopped on: Monday, 27 April 2020 05:48PM
    Psi4 wall time for execution: 0:01:35.80

*** Psi4 exiting successfully. Buy a developer a beer!
