
    -----------------------------------------------------------------------
          Psi4: An Open-Source Ab Initio Electronic Structure Package
                               Psi4 1.3.2 release

                         Git: Rev {HEAD} ecbda83 


    R. M. Parrish, L. A. Burns, D. G. A. Smith, A. C. Simmonett,
    A. E. DePrince III, E. G. Hohenstein, U. Bozkaya, A. Yu. Sokolov,
    R. Di Remigio, R. M. Richard, J. F. Gonthier, A. M. James,
    H. R. McAlexander, A. Kumar, M. Saitow, X. Wang, B. P. Pritchard,
    P. Verma, H. F. Schaefer III, K. Patkowski, R. A. King, E. F. Valeev,
    F. A. Evangelista, J. M. Turney, T. D. Crawford, and C. D. Sherrill,
    J. Chem. Theory Comput. 13(7) pp 3185--3197 (2017).
    (doi: 10.1021/acs.jctc.7b00174)


                         Additional Contributions by
    P. Kraus, H. Kruse, M. H. Lechner, M. C. Schieber, R. A. Shaw,
    A. Alenaizan, R. Galvelis, Z. L. Glick, S. Lehtola, and J. P. Misiewicz

    -----------------------------------------------------------------------


    Psi4 started on: Tuesday, 28 April 2020 02:59PM

    Process ID: 25465
    Host:       ds3
    PSIDATADIR: /theoryfs2/ds/metcalf/miniconda2/envs/tf2gpu/share/psi4
    Memory:     500.0 MiB
    Threads:    1
    
  ==> Input File <==

--------------------------------------------------------------------------
import numpy as np
set {scf_type pk
basis cc-pvdz
d_convergence 10
gdma_switch   0
gdma_limit    0
gdma_origin   [ 0.0,  0.0,  0.0 ]
}
molecule test {
    units Angstrom
    1 1
    --
    1 1
    C                0.825472596260848    -0.639741928903919     3.573375260682659
    O                0.674472596260848     0.448258071096081     2.678375260682659
    H                0.001472596260848     0.246258071096081     2.019375260682658
    H                0.609472596260848    -1.576741928903920     3.057375260682659
    H                0.119472596260848    -0.519741928903919     4.397375260682659
    H                1.849502596260848    -0.680068928903919     3.973049260682659
    C                1.162472596260848     1.291258071096081    -1.778624739317342
    C               -0.685527403739152    -0.254741928903919    -1.236624739317342
    N                0.024472596260848    -0.795741928903919    -0.262624739317342
    N               -0.180527403739152     0.731258071096081    -1.962624739317342
    N               -1.896527403739152    -0.712741928903919    -1.488624739317342
    H                0.963472596260848    -0.456741928903919    -0.060624739317342
    H               -0.307527403739152    -1.636741928903920     0.184375260682658
    H               -0.744527403739152     1.099258071096080    -2.715624739317342
    H               -2.433527403739152    -0.332741928903919    -2.252624739317342
    H               -2.284527403739152    -1.482741928903919    -0.963624739317342
    H                1.907472596260848     0.501258071096081    -1.891624739317342
    H                1.246472596260848     1.725258071096081    -0.778624739317342
    H                1.380032596260848     2.074032071096081    -2.520199739317341

}
e, wfn = energy('scf', return_wfn=True)
gdma(wfn)
dmavals = variable('DMA DISTRIBUTED MULTIPOLES')
charges = np.array(dmavals)
print(charges)
np.save('SSI-020SER-091ARG-1-dimer.npy', np.array(charges))--------------------------------------------------------------------------

*** tstart() called on ds3
*** at Tue Apr 28 14:59:16 2020

   => Loading Basis Set <=

    Name: CC-PVDZ
    Role: ORBITAL
    Keyword: BASIS
    atoms 1, 7-8     entry C          line   138 file /theoryfs2/ds/metcalf/miniconda2/envs/tf2gpu/share/psi4/basis/cc-pvdz.gbs 
    atoms 2          entry O          line   198 file /theoryfs2/ds/metcalf/miniconda2/envs/tf2gpu/share/psi4/basis/cc-pvdz.gbs 
    atoms 3-6, 12-19 entry H          line    22 file /theoryfs2/ds/metcalf/miniconda2/envs/tf2gpu/share/psi4/basis/cc-pvdz.gbs 
    atoms 9-11       entry N          line   168 file /theoryfs2/ds/metcalf/miniconda2/envs/tf2gpu/share/psi4/basis/cc-pvdz.gbs 


         ---------------------------------------------------------
                                   SCF
               by Justin Turney, Rob Parrish, Andy Simmonett
                          and Daniel G. A. Smith
                              RHF Reference
                        1 Threads,    500 MiB Core
         ---------------------------------------------------------

  ==> Geometry <==

    Molecular point group: c1
    Full point group: C1

    Geometry (in Angstrom), charge = 1, multiplicity = 1:

       Center              X                  Y                   Z               Mass       
    ------------   -----------------  -----------------  -----------------  -----------------
         C            0.825472596261    -0.639741928904     3.573375260683    12.000000000000
         O            0.674472596261     0.448258071096     2.678375260683    15.994914619570
         H            0.001472596261     0.246258071096     2.019375260683     1.007825032230
         H            0.609472596261    -1.576741928904     3.057375260683     1.007825032230
         H            0.119472596261    -0.519741928904     4.397375260683     1.007825032230
         H            1.849502596261    -0.680068928904     3.973049260683     1.007825032230
         C            1.162472596261     1.291258071096    -1.778624739317    12.000000000000
         C           -0.685527403739    -0.254741928904    -1.236624739317    12.000000000000
         N            0.024472596261    -0.795741928904    -0.262624739317    14.003074004430
         N           -0.180527403739     0.731258071096    -1.962624739317    14.003074004430
         N           -1.896527403739    -0.712741928904    -1.488624739317    14.003074004430
         H            0.963472596261    -0.456741928904    -0.060624739317     1.007825032230
         H           -0.307527403739    -1.636741928904     0.184375260683     1.007825032230
         H           -0.744527403739     1.099258071096    -2.715624739317     1.007825032230
         H           -2.433527403739    -0.332741928904    -2.252624739317     1.007825032230
         H           -2.284527403739    -1.482741928904    -0.963624739317     1.007825032230
         H            1.907472596261     0.501258071096    -1.891624739317     1.007825032230
         H            1.246472596261     1.725258071096    -0.778624739317     1.007825032230
         H            1.380032596261     2.074032071096    -2.520199739317     1.007825032230

  Running in c1 symmetry.

  Rotational constants: A =      0.11221  B =      0.03152  C =      0.02614 [cm^-1]
  Rotational constants: A =   3364.11443  B =    945.02997  C =    783.63380 [MHz]
  Nuclear repulsion =  318.835578393915682

  Charge       = 1
  Multiplicity = 1
  Electrons    = 58
  Nalpha       = 29
  Nbeta        = 29

  ==> Algorithm <==

  SCF Algorithm Type is PK.
  DIIS enabled.
  MOM disabled.
  Fractional occupation disabled.
  Guess Type is SAD.
  Energy threshold   = 1.00e-06
  Density threshold  = 1.00e-10
  Integral threshold = 0.00e+00

  ==> Primary Basis <==

  Basis Set: CC-PVDZ
    Blend: CC-PVDZ
    Number of shells: 78
    Number of basis function: 158
    Number of Cartesian functions: 165
    Spherical Harmonics?: true
    Max angular momentum: 2

  ==> Pre-Iterations <==

   -------------------------------------------------------
    Irrep   Nso     Nmo     Nalpha   Nbeta   Ndocc  Nsocc
   -------------------------------------------------------
     A        158     158       0       0       0       0
   -------------------------------------------------------
    Total     158     158      29      29      29       0
   -------------------------------------------------------

  ==> Integral Setup <==

  Using integral reordering PK algorithm.
  Sizing the integral batches needed.
  Building batch lookup table.
   Calculation information:
      Number of atoms:                  19
      Number of AO shells:              78
      Number of primitives:            214
      Number of atomic orbitals:       165
      Number of basis functions:       158

      Integral cutoff                 1.00e-12
      Number of threads:                 1

	Batch   1 pq = [       0,    9405] index = [             0,44231715] size =     44231715
	Batch   2 pq = [    9405,   12561] index = [      44231715,78895641] size =     34663926
  Task number: 8
  Buffer size: 11059200
  Buffer per thread: 2
  We computed 4075318 shell quartets total.
  Whereas there are 4747821 unique shell quartets.

  ==> DiskJK: Disk-Based J/K Matrices <==

    J tasked:                  Yes
    K tasked:                  Yes
    wK tasked:                  No
    Memory [MiB]:              375
    Schwarz Cutoff:          1E-12

    OpenMP threads:              1

  Minimum eigenvalue in the overlap matrix is 3.9380865025E-03.
  Using Symmetric Orthogonalization.

  SCF Guess: Superposition of Atomic Densities via on-the-fly atomic UHF.

  ==> Iterations <==

                        Total Energy        Delta E     RMS |[F,P]|

   @RHF iter SAD:  -357.84835464980074   -3.57848e+02   0.00000e+00 
   @RHF iter   1:  -358.44418264282012   -5.95828e-01   3.68200e-03 DIIS
   @RHF iter   2:  -358.60128535873980   -1.57103e-01   1.60752e-03 DIIS
   @RHF iter   3:  -358.62743050751493   -2.61451e-02   3.82402e-04 DIIS
   @RHF iter   4:  -358.62987345563033   -2.44295e-03   9.32781e-05 DIIS
   @RHF iter   5:  -358.63000496469664   -1.31509e-04   2.53227e-05 DIIS
   @RHF iter   6:  -358.63001863169740   -1.36670e-05   7.19821e-06 DIIS
   @RHF iter   7:  -358.63001988291717   -1.25122e-06   1.89297e-06 DIIS
   @RHF iter   8:  -358.63001998263536   -9.97182e-08   6.37191e-07 DIIS
   @RHF iter   9:  -358.63001999105757   -8.42221e-09   1.05822e-07 DIIS
   @RHF iter  10:  -358.63001999135366   -2.96097e-10   4.02353e-08 DIIS
   @RHF iter  11:  -358.63001999138430   -3.06386e-11   1.05068e-08 DIIS
   @RHF iter  12:  -358.63001999138771   -3.41061e-12   3.18962e-09 DIIS
   @RHF iter  13:  -358.63001999138692    7.95808e-13   1.09341e-09 DIIS
   @RHF iter  14:  -358.63001999138908   -2.16005e-12   2.57288e-10 DIIS
   @RHF iter  15:  -358.63001999138862    4.54747e-13   9.25924e-11 DIIS
  Energy and wave function converged.


  ==> Post-Iterations <==

    Orbital Energies [Eh]
    ---------------------

    Doubly Occupied:                                                      

       1A    -20.661320     2A    -15.798537     3A    -15.795276  
       4A    -15.792126     5A    -11.597544     6A    -11.443965  
       7A    -11.378980     8A     -1.553168     9A     -1.462047  
      10A     -1.408733    11A     -1.399248    12A     -1.145157  
      13A     -1.045575    14A     -1.025932    15A     -0.985760  
      16A     -0.947229    17A     -0.867152    18A     -0.863409  
      19A     -0.832712    20A     -0.799251    21A     -0.793068  
      22A     -0.747293    23A     -0.723928    24A     -0.720884  
      25A     -0.698083    26A     -0.627856    27A     -0.599631  
      28A     -0.590880    29A     -0.548916  

    Virtual:                                                              

      30A     -0.018079    31A      0.015007    32A      0.019582  
      33A      0.029218    34A      0.054806    35A      0.070450  
      36A      0.092514    37A      0.117648    38A      0.121146  
      39A      0.122803    40A      0.152503    41A      0.177696  
      42A      0.180612    43A      0.190671    44A      0.254394  
      45A      0.280752    46A      0.327649    47A      0.329540  
      48A      0.450631    49A      0.459295    50A      0.501073  
      51A      0.516068    52A      0.519311    53A      0.521648  
      54A      0.538159    55A      0.541648    56A      0.551670  
      57A      0.578518    58A      0.630873    59A      0.682973  
      60A      0.683867    61A      0.702219    62A      0.706235  
      63A      0.734348    64A      0.738685    65A      0.746358  
      66A      0.775312    67A      0.785565    68A      0.799419  
      69A      0.801783    70A      0.809510    71A      0.845878  
      72A      0.846961    73A      0.904548    74A      0.909316  
      75A      0.934312    76A      0.974478    77A      1.023023  
      78A      1.038176    79A      1.044094    80A      1.084155  
      81A      1.095258    82A      1.108246    83A      1.143011  
      84A      1.164797    85A      1.191969    86A      1.210849  
      87A      1.226943    88A      1.280616    89A      1.292270  
      90A      1.349003    91A      1.402482    92A      1.438564  
      93A      1.500732    94A      1.510774    95A      1.514431  
      96A      1.523855    97A      1.534676    98A      1.566634  
      99A      1.572730   100A      1.603171   101A      1.644685  
     102A      1.678889   103A      1.713995   104A      1.724780  
     105A      1.743279   106A      1.757200   107A      1.766126  
     108A      1.790273   109A      1.792380   110A      1.805346  
     111A      1.813632   112A      1.834160   113A      1.836930  
     114A      1.880451   115A      1.887261   116A      1.945252  
     117A      2.006275   118A      2.009789   119A      2.027447  
     120A      2.071629   121A      2.090923   122A      2.117387  
     123A      2.181117   124A      2.207594   125A      2.231940  
     126A      2.241050   127A      2.264982   128A      2.275415  
     129A      2.280017   130A      2.305226   131A      2.330755  
     132A      2.360098   133A      2.404392   134A      2.418866  
     135A      2.455984   136A      2.528990   137A      2.579996  
     138A      2.594427   139A      2.636591   140A      2.644569  
     141A      2.657695   142A      2.685486   143A      2.689093  
     144A      2.757527   145A      2.774996   146A      2.812267  
     147A      2.829367   148A      2.878525   149A      3.045905  
     150A      3.070803   151A      3.116784   152A      3.199637  
     153A      3.293030   154A      3.318801   155A      3.500858  
     156A      3.562046   157A      3.634258   158A      3.993299  

    Final Occupation by Irrep:
              A 
    DOCC [    29 ]

  @RHF Final Energy:  -358.63001999138862

   => Energetics <=

    Nuclear Repulsion Energy =            318.8355783939156822
    One-Electron Energy =               -1109.2238761316900764
    Two-Electron Energy =                 431.7582777463857155
    Total Energy =                       -358.6300199913886217

Computation Completed


Properties will be evaluated at   0.000000,   0.000000,   0.000000 [a0]

Properties computed using the SCF density matrix

  Nuclear Dipole Moment: [e a0]
     X:     2.1722      Y:    -0.9700      Z:     2.3191

  Electronic Dipole Moment: [e a0]
     X:    -3.4268      Y:     0.0348      Z:    -4.7694

  Dipole Moment: [e a0]
     X:    -1.2546      Y:    -0.9353      Z:    -2.4503     Total:     2.9074

  Dipole Moment: [D]
     X:    -3.1889      Y:    -2.3772      Z:    -6.2280     Total:     7.3898


*** tstop() called on ds3 at Tue Apr 28 15:00:17 2020
Module time:
	user time   =      25.86 seconds =       0.43 minutes
	system time =       9.98 seconds =       0.17 minutes
	total time  =         61 seconds =       1.02 minutes
Total time:
	user time   =      25.86 seconds =       0.43 minutes
	system time =       9.98 seconds =       0.17 minutes
	total time  =         61 seconds =       1.02 minutes
                                     G D M A

                                 by Anthony Stone

                           version 2.2.06, 22 June 2011

               Distributed Multipoles from Gaussian wavefunctions


Starting at 15:0:17 on 28 Apr 2020  


Using SCF density matrix from file ./SSI/SSI-020SER-091ARG-1-dimer.test.25465.fchk


                         Distributed Multipole Analysis

Standard DMA

Positions and radii in angstrom
Multipole moments in atomic units, ea_0^k for rank k

C          x =  0.825473  y = -0.639742  z =  3.573375 angstrom
           Maximum rank =  0   Radius =  0.650 angstrom
                   Q00  =  -0.049607

O          x =  0.674473  y =  0.448258  z =  2.678375 angstrom
           Maximum rank =  0   Radius =  0.650 angstrom
                   Q00  =  -0.591530

H          x =  0.001473  y =  0.246258  z =  2.019375 angstrom
           Maximum rank =  0   Radius =  0.325 angstrom
                   Q00  =   0.370563

H          x =  0.609473  y = -1.576742  z =  3.057375 angstrom
           Maximum rank =  0   Radius =  0.325 angstrom
                   Q00  =   0.044898

H          x =  0.119473  y = -0.519742  z =  4.397375 angstrom
           Maximum rank =  0   Radius =  0.325 angstrom
                   Q00  =   0.096841

H          x =  1.849503  y = -0.680069  z =  3.973049 angstrom
           Maximum rank =  0   Radius =  0.325 angstrom
                   Q00  =   0.130155

C          x =  1.162473  y =  1.291258  z = -1.778625 angstrom
           Maximum rank =  0   Radius =  0.650 angstrom
                   Q00  =  -0.129320

C          x = -0.685527  y = -0.254742  z = -1.236625 angstrom
           Maximum rank =  0   Radius =  0.650 angstrom
                   Q00  =   1.087624

N          x =  0.024473  y = -0.795742  z = -0.262625 angstrom
           Maximum rank =  0   Radius =  0.650 angstrom
                   Q00  =  -0.593071

N          x = -0.180527  y =  0.731258  z = -1.962625 angstrom
           Maximum rank =  0   Radius =  0.650 angstrom
                   Q00  =  -0.492643

N          x = -1.896527  y = -0.712742  z = -1.488625 angstrom
           Maximum rank =  0   Radius =  0.650 angstrom
                   Q00  =  -0.598346

H          x =  0.963473  y = -0.456742  z = -0.060625 angstrom
           Maximum rank =  0   Radius =  0.325 angstrom
                   Q00  =   0.279024

H          x = -0.307527  y = -1.636742  z =  0.184375 angstrom
           Maximum rank =  0   Radius =  0.325 angstrom
                   Q00  =   0.264672

H          x = -0.744527  y =  1.099258  z = -2.715625 angstrom
           Maximum rank =  0   Radius =  0.325 angstrom
                   Q00  =   0.237284

H          x = -2.433527  y = -0.332742  z = -2.252625 angstrom
           Maximum rank =  0   Radius =  0.325 angstrom
                   Q00  =   0.267435

H          x = -2.284527  y = -1.482742  z = -0.963625 angstrom
           Maximum rank =  0   Radius =  0.325 angstrom
                   Q00  =   0.268099

H          x =  1.907473  y =  0.501258  z = -1.891625 angstrom
           Maximum rank =  0   Radius =  0.325 angstrom
                   Q00  =   0.114975

H          x =  1.246473  y =  1.725258  z = -0.778625 angstrom
           Maximum rank =  0   Radius =  0.325 angstrom
                   Q00  =   0.123300

H          x =  1.380033  y =  2.074032  z = -2.520200 angstrom
           Maximum rank =  0   Radius =  0.325 angstrom
                   Q00  =   0.169647

Total multipoles referred to origin at
           x =   0.000000,  y =    0.000000,  z =    0.000000 angstrom
                   Q00  =   1.000000

Finished at 15:0:17 on 28 Apr 2020  

  DMA results are available in the Python driver through the
	  variable('DMA DISTRIBUTED MULTIPOLES')
  and
	  variable('DMA TOTAL MULTIPOLES')
  commands.


    Psi4 stopped on: Tuesday, 28 April 2020 03:00PM
    Psi4 wall time for execution: 0:01:01.37

*** Psi4 exiting successfully. Buy a developer a beer!
