
    -----------------------------------------------------------------------
          Psi4: An Open-Source Ab Initio Electronic Structure Package
                               Psi4 1.3.2 release

                         Git: Rev {HEAD} ecbda83 


    R. M. Parrish, L. A. Burns, D. G. A. Smith, A. C. Simmonett,
    A. E. DePrince III, E. G. Hohenstein, U. Bozkaya, A. Yu. Sokolov,
    R. Di Remigio, R. M. Richard, J. F. Gonthier, A. M. James,
    H. R. McAlexander, A. Kumar, M. Saitow, X. Wang, B. P. Pritchard,
    P. Verma, H. F. Schaefer III, K. Patkowski, R. A. King, E. F. Valeev,
    F. A. Evangelista, J. M. Turney, T. D. Crawford, and C. D. Sherrill,
    J. Chem. Theory Comput. 13(7) pp 3185--3197 (2017).
    (doi: 10.1021/acs.jctc.7b00174)


                         Additional Contributions by
    P. Kraus, H. Kruse, M. H. Lechner, M. C. Schieber, R. A. Shaw,
    A. Alenaizan, R. Galvelis, Z. L. Glick, S. Lehtola, and J. P. Misiewicz

    -----------------------------------------------------------------------


    Psi4 started on: Monday, 27 April 2020 07:56PM

    Process ID: 10916
    Host:       ds3
    PSIDATADIR: /theoryfs2/ds/metcalf/miniconda2/envs/tf2gpu/share/psi4
    Memory:     500.0 MiB
    Threads:    1
    
  ==> Input File <==

--------------------------------------------------------------------------
import numpy as np
set {scf_type pk
basis cc-pvdz
d_convergence 10
gdma_switch   0
gdma_limit    0
gdma_origin   [ 0.0,  0.0,  0.0 ]
}
molecule test {
    units Angstrom
    0 1
    --
    0 1
    C                1.508168681609992     2.549310483863281     1.962688439926229
    O                1.429168681609992     2.034310483863280     0.636688439926229
    H                0.986168681609991     1.164310483863280     0.640688439926229
    H                2.192168681609991     3.399310483863280     1.970688439926229
    H                0.513978681609991     2.886456883863280     2.291208439926228
    H                1.893378681609992     1.769472483863280     2.636088439926228
    C               -2.001831318390009     0.687310483863280    -1.115311560073771
    C               -1.045831318390009    -0.403689516136720    -0.731311560073771
    C                0.665168681609991    -1.352689516136720     0.278688439926229
    C               -1.022831318390009    -1.715689516136720    -1.089311560073771
    N                0.012168681609991    -0.202689516136720     0.130688439926229
    N                0.057168681609991    -2.285689516136720    -0.449311560073771
    H                1.542168681609992    -1.508689516136720     0.896688439926229
    H               -2.122831318390009     1.365310483863280    -0.278311560073771
    H               -2.965831318390009     0.232310483863280    -1.306311560073771
    H                0.341168681609991    -3.257689516136719    -0.501311560073771
    H               -1.729831318390009    -2.209689516136719    -1.744311560073771
    H               -1.706761318390009     1.250757483863280    -2.012781560073771

}
e, wfn = energy('scf', return_wfn=True)
gdma(wfn)
dmavals = variable('DMA DISTRIBUTED MULTIPOLES')
charges = np.array(dmavals)
print(charges)
np.save('SSI-091THR-094HIE-2-dimer.npy', np.array(charges))--------------------------------------------------------------------------

*** tstart() called on ds3
*** at Mon Apr 27 19:56:10 2020

   => Loading Basis Set <=

    Name: CC-PVDZ
    Role: ORBITAL
    Keyword: BASIS
    atoms 1, 7-10    entry C          line   138 file /theoryfs2/ds/metcalf/miniconda2/envs/tf2gpu/share/psi4/basis/cc-pvdz.gbs 
    atoms 2          entry O          line   198 file /theoryfs2/ds/metcalf/miniconda2/envs/tf2gpu/share/psi4/basis/cc-pvdz.gbs 
    atoms 3-6, 13-18 entry H          line    22 file /theoryfs2/ds/metcalf/miniconda2/envs/tf2gpu/share/psi4/basis/cc-pvdz.gbs 
    atoms 11-12      entry N          line   168 file /theoryfs2/ds/metcalf/miniconda2/envs/tf2gpu/share/psi4/basis/cc-pvdz.gbs 


         ---------------------------------------------------------
                                   SCF
               by Justin Turney, Rob Parrish, Andy Simmonett
                          and Daniel G. A. Smith
                              RHF Reference
                        1 Threads,    500 MiB Core
         ---------------------------------------------------------

  ==> Geometry <==

    Molecular point group: c1
    Full point group: C1

    Geometry (in Angstrom), charge = 0, multiplicity = 1:

       Center              X                  Y                   Z               Mass       
    ------------   -----------------  -----------------  -----------------  -----------------
         C            1.508168681610     2.549310483863     1.962688439926    12.000000000000
         O            1.429168681610     2.034310483863     0.636688439926    15.994914619570
         H            0.986168681610     1.164310483863     0.640688439926     1.007825032230
         H            2.192168681610     3.399310483863     1.970688439926     1.007825032230
         H            0.513978681610     2.886456883863     2.291208439926     1.007825032230
         H            1.893378681610     1.769472483863     2.636088439926     1.007825032230
         C           -2.001831318390     0.687310483863    -1.115311560074    12.000000000000
         C           -1.045831318390    -0.403689516137    -0.731311560074    12.000000000000
         C            0.665168681610    -1.352689516137     0.278688439926    12.000000000000
         C           -1.022831318390    -1.715689516137    -1.089311560074    12.000000000000
         N            0.012168681610    -0.202689516137     0.130688439926    14.003074004430
         N            0.057168681610    -2.285689516137    -0.449311560074    14.003074004430
         H            1.542168681610    -1.508689516137     0.896688439926     1.007825032230
         H           -2.122831318390     1.365310483863    -0.278311560074     1.007825032230
         H           -2.965831318390     0.232310483863    -1.306311560074     1.007825032230
         H            0.341168681610    -3.257689516137    -0.501311560074     1.007825032230
         H           -1.729831318390    -2.209689516137    -1.744311560074     1.007825032230
         H           -1.706761318390     1.250757483863    -2.012781560074     1.007825032230

  Running in c1 symmetry.

  Rotational constants: A =      0.10691  B =      0.03571  C =      0.02777 [cm^-1]
  Rotational constants: A =   3205.06753  B =   1070.44110  C =    832.61147 [MHz]
  Nuclear repulsion =  363.947236256608903

  Charge       = 0
  Multiplicity = 1
  Electrons    = 62
  Nalpha       = 31
  Nbeta        = 31

  ==> Algorithm <==

  SCF Algorithm Type is PK.
  DIIS enabled.
  MOM disabled.
  Fractional occupation disabled.
  Guess Type is SAD.
  Energy threshold   = 1.00e-06
  Density threshold  = 1.00e-10
  Integral threshold = 0.00e+00

  ==> Primary Basis <==

  Basis Set: CC-PVDZ
    Blend: CC-PVDZ
    Number of shells: 78
    Number of basis function: 162
    Number of Cartesian functions: 170
    Spherical Harmonics?: true
    Max angular momentum: 2

  ==> Pre-Iterations <==

   -------------------------------------------------------
    Irrep   Nso     Nmo     Nalpha   Nbeta   Ndocc  Nsocc
   -------------------------------------------------------
     A        162     162       0       0       0       0
   -------------------------------------------------------
    Total     162     162      31      31      31       0
   -------------------------------------------------------

  ==> Integral Setup <==

  Using integral reordering PK algorithm.
  Sizing the integral batches needed.
  Building batch lookup table.
   Calculation information:
      Number of atoms:                  18
      Number of AO shells:              78
      Number of primitives:            226
      Number of atomic orbitals:       170
      Number of basis functions:       162

      Integral cutoff                 1.00e-12
      Number of threads:                 1

	Batch   1 pq = [       0,    9405] index = [             0,44231715] size =     44231715
	Batch   2 pq = [    9405,   13203] index = [      44231715,87166206] size =     42934491
  Task number: 8
  Buffer size: 11059200
  Buffer per thread: 2
  We computed 4087088 shell quartets total.
  Whereas there are 4747821 unique shell quartets.

  ==> DiskJK: Disk-Based J/K Matrices <==

    J tasked:                  Yes
    K tasked:                  Yes
    wK tasked:                  No
    Memory [MiB]:              375
    Schwarz Cutoff:          1E-12

    OpenMP threads:              1

  Minimum eigenvalue in the overlap matrix is 1.1296621257E-03.
  Using Symmetric Orthogonalization.

  SCF Guess: Superposition of Atomic Densities via on-the-fly atomic UHF.

  ==> Iterations <==

                        Total Energy        Delta E     RMS |[F,P]|

   @RHF iter SAD:  -378.00090272506998   -3.78001e+02   0.00000e+00 
   @RHF iter   1:  -378.73385880701386   -7.32956e-01   3.51944e-03 DIIS
   @RHF iter   2:  -378.88582607154564   -1.51967e-01   1.81647e-03 DIIS
   @RHF iter   3:  -378.92223707830846   -3.64110e-02   4.19957e-04 DIIS
   @RHF iter   4:  -378.92515601210920   -2.91893e-03   1.63793e-04 DIIS
   @RHF iter   5:  -378.92554852579309   -3.92514e-04   3.64894e-05 DIIS
   @RHF iter   6:  -378.92557533132248   -2.68055e-05   1.44501e-05 DIIS
   @RHF iter   7:  -378.92558014030294   -4.80898e-06   4.47875e-06 DIIS
   @RHF iter   8:  -378.92558103223695   -8.91934e-07   1.79762e-06 DIIS
   @RHF iter   9:  -378.92558119260650   -1.60370e-07   7.39439e-07 DIIS
   @RHF iter  10:  -378.92558121411957   -2.15131e-08   2.34749e-07 DIIS
   @RHF iter  11:  -378.92558121716331   -3.04374e-09   7.22399e-08 DIIS
   @RHF iter  12:  -378.92558121739137   -2.28056e-10   3.06011e-08 DIIS
   @RHF iter  13:  -378.92558121742877   -3.74030e-11   1.07267e-08 DIIS
   @RHF iter  14:  -378.92558121743218   -3.41061e-12   3.43420e-09 DIIS
   @RHF iter  15:  -378.92558121743207    1.13687e-13   1.56238e-09 DIIS
   @RHF iter  16:  -378.92558121743053    1.53477e-12   4.53474e-10 DIIS
   @RHF iter  17:  -378.92558121743070   -1.70530e-13   2.07045e-10 DIIS
   @RHF iter  18:  -378.92558121743275   -2.04636e-12   6.43898e-11 DIIS
  Energy and wave function converged.


  ==> Post-Iterations <==

    Orbital Energies [Eh]
    ---------------------

    Doubly Occupied:                                                      

       1A    -20.485029     2A    -15.636860     3A    -15.549571  
       4A    -11.311941     5A    -11.263908     6A    -11.257495  
       7A    -11.242568     8A    -11.229056     9A     -1.357107  
      10A     -1.289396    11A     -1.172120    12A     -1.044662  
      13A     -0.951625    14A     -0.882352    15A     -0.834866  
      16A     -0.780041    17A     -0.754664    18A     -0.639345  
      19A     -0.623543    20A     -0.616613    21A     -0.609755  
      22A     -0.575398    23A     -0.560636    24A     -0.552904  
      25A     -0.545914    26A     -0.531019    27A     -0.462937  
      28A     -0.417244    29A     -0.397988    30A     -0.390997  
      31A     -0.322870  

    Virtual:                                                              

      32A      0.164294    33A      0.172012    34A      0.192599  
      35A      0.200784    36A      0.213846    37A      0.227340  
      38A      0.237961    39A      0.268366    40A      0.288153  
      41A      0.289877    42A      0.310107    43A      0.331298  
      44A      0.367330    45A      0.386132    46A      0.408106  
      47A      0.454530    48A      0.474683    49A      0.506379  
      50A      0.590340    51A      0.602167    52A      0.642834  
      53A      0.650266    54A      0.665304    55A      0.672393  
      56A      0.686644    57A      0.696007    58A      0.735850  
      59A      0.747739    60A      0.756009    61A      0.777714  
      62A      0.799211    63A      0.815481    64A      0.836680  
      65A      0.869073    66A      0.877103    67A      0.888413  
      68A      0.900392    69A      0.905724    70A      0.920551  
      71A      0.930168    72A      0.942515    73A      0.961780  
      74A      0.970770    75A      1.024941    76A      1.038050  
      77A      1.072142    78A      1.106970    79A      1.120011  
      80A      1.125902    81A      1.161405    82A      1.188362  
      83A      1.222868    84A      1.254476    85A      1.261402  
      86A      1.275482    87A      1.307920    88A      1.311486  
      89A      1.346646    90A      1.399642    91A      1.406945  
      92A      1.439086    93A      1.478577    94A      1.514730  
      95A      1.542992    96A      1.559905    97A      1.586434  
      98A      1.597730    99A      1.639010   100A      1.686472  
     101A      1.694900   102A      1.704534   103A      1.722278  
     104A      1.770365   105A      1.782803   106A      1.804499  
     107A      1.838831   108A      1.865204   109A      1.882341  
     110A      1.896245   111A      1.912007   112A      1.930139  
     113A      1.941191   114A      1.945851   115A      1.955693  
     116A      1.960879   117A      1.969249   118A      2.001378  
     119A      2.033413   120A      2.033566   121A      2.083220  
     122A      2.107544   123A      2.131823   124A      2.169395  
     125A      2.193014   126A      2.216631   127A      2.230644  
     128A      2.296267   129A      2.321452   130A      2.329636  
     131A      2.371955   132A      2.411797   133A      2.416812  
     134A      2.425438   135A      2.460256   136A      2.478016  
     137A      2.556014   138A      2.583607   139A      2.656374  
     140A      2.695875   141A      2.748329   142A      2.759017  
     143A      2.773543   144A      2.777666   145A      2.785855  
     146A      2.795207   147A      2.807730   148A      2.851606  
     149A      2.876871   150A      2.905140   151A      2.943924  
     152A      2.996384   153A      3.082156   154A      3.136876  
     155A      3.217845   156A      3.355446   157A      3.441941  
     158A      3.469139   159A      3.503174   160A      3.663400  
     161A      3.777939   162A      4.214164  

    Final Occupation by Irrep:
              A 
    DOCC [    31 ]

  @RHF Final Energy:  -378.92558121743275

   => Energetics <=

    Nuclear Repulsion Energy =            363.9472362566089032
    One-Electron Energy =               -1237.1647892096602845
    Two-Electron Energy =                 494.2919717356186311
    Total Energy =                       -378.9255812174327502

Computation Completed


Properties will be evaluated at   0.000000,   0.000000,   0.000000 [a0]

Properties computed using the SCF density matrix

  Nuclear Dipole Moment: [e a0]
     X:    -0.9835      Y:     4.7905      Z:     2.4342

  Electronic Dipole Moment: [e a0]
     X:     0.5239      Y:    -6.8749      Z:    -2.4794

  Dipole Moment: [e a0]
     X:    -0.4596      Y:    -2.0844      Z:    -0.0452     Total:     2.1350

  Dipole Moment: [D]
     X:    -1.1683      Y:    -5.2981      Z:    -0.1149     Total:     5.4266


*** tstop() called on ds3 at Mon Apr 27 19:56:53 2020
Module time:
	user time   =      30.17 seconds =       0.50 minutes
	system time =      13.42 seconds =       0.22 minutes
	total time  =         43 seconds =       0.72 minutes
Total time:
	user time   =      30.17 seconds =       0.50 minutes
	system time =      13.42 seconds =       0.22 minutes
	total time  =         43 seconds =       0.72 minutes
                                     G D M A

                                 by Anthony Stone

                           version 2.2.06, 22 June 2011

               Distributed Multipoles from Gaussian wavefunctions


Starting at 19:56:53 on 27 Apr 2020 


Using SCF density matrix from file ./SSI/SSI-091THR-094HIE-2-dimer.test.10916.fchk


                         Distributed Multipole Analysis

Standard DMA

Positions and radii in angstrom
Multipole moments in atomic units, ea_0^k for rank k

C          x =  1.508169  y =  2.549310  z =  1.962688 angstrom
           Maximum rank =  0   Radius =  0.650 angstrom
                   Q00  =  -0.027284

O          x =  1.429169  y =  2.034310  z =  0.636688 angstrom
           Maximum rank =  0   Radius =  0.650 angstrom
                   Q00  =  -0.693277

H          x =  0.986169  y =  1.164310  z =  0.640688 angstrom
           Maximum rank =  0   Radius =  0.325 angstrom
                   Q00  =   0.509513

H          x =  2.192169  y =  3.399310  z =  1.970688 angstrom
           Maximum rank =  0   Radius =  0.325 angstrom
                   Q00  =   0.094214

H          x =  0.513979  y =  2.886457  z =  2.291208 angstrom
           Maximum rank =  0   Radius =  0.325 angstrom
                   Q00  =   0.055653

H          x =  1.893379  y =  1.769472  z =  2.636088 angstrom
           Maximum rank =  0   Radius =  0.325 angstrom
                   Q00  =   0.044564

C          x = -2.001831  y =  0.687310  z = -1.115312 angstrom
           Maximum rank =  0   Radius =  0.650 angstrom
                   Q00  =  -0.203227

C          x = -1.045831  y = -0.403690  z = -0.731312 angstrom
           Maximum rank =  0   Radius =  0.650 angstrom
                   Q00  =   0.217142

C          x =  0.665169  y = -1.352690  z =  0.278688 angstrom
           Maximum rank =  0   Radius =  0.650 angstrom
                   Q00  =   0.462884

C          x = -1.022831  y = -1.715690  z = -1.089312 angstrom
           Maximum rank =  0   Radius =  0.650 angstrom
                   Q00  =   0.000843

N          x =  0.012169  y = -0.202690  z =  0.130688 angstrom
           Maximum rank =  0   Radius =  0.650 angstrom
                   Q00  =  -0.804926

N          x =  0.057169  y = -2.285690  z = -0.449312 angstrom
           Maximum rank =  0   Radius =  0.650 angstrom
                   Q00  =  -0.456035

H          x =  1.542169  y = -1.508690  z =  0.896688 angstrom
           Maximum rank =  0   Radius =  0.325 angstrom
                   Q00  =   0.130591

H          x = -2.122831  y =  1.365310  z = -0.278312 angstrom
           Maximum rank =  0   Radius =  0.325 angstrom
                   Q00  =   0.127880

H          x = -2.965831  y =  0.232310  z = -1.306312 angstrom
           Maximum rank =  0   Radius =  0.325 angstrom
                   Q00  =   0.093292

H          x =  0.341169  y = -3.257690  z = -0.501312 angstrom
           Maximum rank =  0   Radius =  0.325 angstrom
                   Q00  =   0.226375

H          x = -1.729831  y = -2.209690  z = -1.744312 angstrom
           Maximum rank =  0   Radius =  0.325 angstrom
                   Q00  =   0.107762

H          x = -1.706761  y =  1.250757  z = -2.012782 angstrom
           Maximum rank =  0   Radius =  0.325 angstrom
                   Q00  =   0.114037

Total multipoles referred to origin at
           x =   0.000000,  y =    0.000000,  z =    0.000000 angstrom
                   Q00  =  -0.000000

Finished at 19:56:53 on 27 Apr 2020 

  DMA results are available in the Python driver through the
	  variable('DMA DISTRIBUTED MULTIPOLES')
  and
	  variable('DMA TOTAL MULTIPOLES')
  commands.


    Psi4 stopped on: Monday, 27 April 2020 07:56PM
    Psi4 wall time for execution: 0:00:43.03

*** Psi4 exiting successfully. Buy a developer a beer!
