
    -----------------------------------------------------------------------
          Psi4: An Open-Source Ab Initio Electronic Structure Package
                               Psi4 1.3.2 release

                         Git: Rev {HEAD} ecbda83 


    R. M. Parrish, L. A. Burns, D. G. A. Smith, A. C. Simmonett,
    A. E. DePrince III, E. G. Hohenstein, U. Bozkaya, A. Yu. Sokolov,
    R. Di Remigio, R. M. Richard, J. F. Gonthier, A. M. James,
    H. R. McAlexander, A. Kumar, M. Saitow, X. Wang, B. P. Pritchard,
    P. Verma, H. F. Schaefer III, K. Patkowski, R. A. King, E. F. Valeev,
    F. A. Evangelista, J. M. Turney, T. D. Crawford, and C. D. Sherrill,
    J. Chem. Theory Comput. 13(7) pp 3185--3197 (2017).
    (doi: 10.1021/acs.jctc.7b00174)


                         Additional Contributions by
    P. Kraus, H. Kruse, M. H. Lechner, M. C. Schieber, R. A. Shaw,
    A. Alenaizan, R. Galvelis, Z. L. Glick, S. Lehtola, and J. P. Misiewicz

    -----------------------------------------------------------------------


    Psi4 started on: Tuesday, 28 April 2020 09:01AM

    Process ID: 7749
    Host:       ds3
    PSIDATADIR: /theoryfs2/ds/metcalf/miniconda2/envs/tf2gpu/share/psi4
    Memory:     500.0 MiB
    Threads:    1
    
  ==> Input File <==

--------------------------------------------------------------------------
import numpy as np
set {scf_type pk
basis cc-pvdz
d_convergence 10
gdma_switch   0
gdma_limit    0
gdma_origin   [ 0.0,  0.0,  0.0 ]
}
molecule test {
    units Angstrom
    0 1
    --
    0 1
    C               -0.225169251187463    -1.891694065304485    -0.980931901106253
    C               -0.057169251187463    -2.560694065304485    -2.339931901106253
    H               -1.109169251187463    -1.254694065304485    -0.995931901106253
    H               -0.342169251187463    -2.654694065304485    -0.211931901106253
    H                0.653830748812537    -1.290694065304485    -0.755931901106253
    H                0.828830748812537    -3.195694065304485    -2.316931901106253
    H                0.065940748812537    -1.808394065304485    -3.132991901106253
    H               -0.942856251187463    -3.177594065304485    -2.551961901106253
    C               -0.250169251187463     1.565305934695515     0.699068098893747
    C                1.138830748812537     2.223305934695515     0.715068098893747
    C               -0.623169251187463     0.768305934695515     1.963068098893747
    H               -0.978169251187463     2.361305934695515     0.550068098893747
    H               -0.269169251187463     0.895305934695515    -0.160931901106253
    H                1.211830748812537     2.866305934695515     1.598068098893747
    H               -0.104169251187463    -0.189694065304485     1.942068098893747
    H               -0.310169251187463     1.333305934695515     2.841068098893747
    H                1.291307748812537     2.831705934695515    -0.188581901106253
    H                1.913340748812537     1.442305934695515     0.702078098893747
    H               -1.708624251187463     0.596605934695515     2.011008098893746

}
e, wfn = energy('scf', return_wfn=True)
gdma(wfn)
dmavals = variable('DMA DISTRIBUTED MULTIPOLES')
charges = np.array(dmavals)
print(charges)
np.save('SSI-234LEU-260LYS-1-dimer.npy', np.array(charges))--------------------------------------------------------------------------

*** tstart() called on ds3
*** at Tue Apr 28 09:01:46 2020

   => Loading Basis Set <=

    Name: CC-PVDZ
    Role: ORBITAL
    Keyword: BASIS
    atoms 1-2, 9-11  entry C          line   138 file /theoryfs2/ds/metcalf/miniconda2/envs/tf2gpu/share/psi4/basis/cc-pvdz.gbs 
    atoms 3-8, 12-19 entry H          line    22 file /theoryfs2/ds/metcalf/miniconda2/envs/tf2gpu/share/psi4/basis/cc-pvdz.gbs 


         ---------------------------------------------------------
                                   SCF
               by Justin Turney, Rob Parrish, Andy Simmonett
                          and Daniel G. A. Smith
                              RHF Reference
                        1 Threads,    500 MiB Core
         ---------------------------------------------------------

  ==> Geometry <==

    Molecular point group: c1
    Full point group: C1

    Geometry (in Angstrom), charge = 0, multiplicity = 1:

       Center              X                  Y                   Z               Mass       
    ------------   -----------------  -----------------  -----------------  -----------------
         C           -0.225169251187    -1.891694065304    -0.980931901106    12.000000000000
         C           -0.057169251187    -2.560694065304    -2.339931901106    12.000000000000
         H           -1.109169251187    -1.254694065304    -0.995931901106     1.007825032230
         H           -0.342169251187    -2.654694065304    -0.211931901106     1.007825032230
         H            0.653830748813    -1.290694065304    -0.755931901106     1.007825032230
         H            0.828830748813    -3.195694065304    -2.316931901106     1.007825032230
         H            0.065940748813    -1.808394065304    -3.132991901106     1.007825032230
         H           -0.942856251187    -3.177594065304    -2.551961901106     1.007825032230
         C           -0.250169251187     1.565305934696     0.699068098894    12.000000000000
         C            1.138830748813     2.223305934696     0.715068098894    12.000000000000
         C           -0.623169251187     0.768305934696     1.963068098894    12.000000000000
         H           -0.978169251187     2.361305934696     0.550068098894     1.007825032230
         H           -0.269169251187     0.895305934696    -0.160931901106     1.007825032230
         H            1.211830748813     2.866305934696     1.598068098894     1.007825032230
         H           -0.104169251187    -0.189694065304     1.942068098894     1.007825032230
         H           -0.310169251187     1.333305934696     2.841068098894     1.007825032230
         H            1.291307748813     2.831705934696    -0.188581901106     1.007825032230
         H            1.913340748813     1.442305934696     0.702078098894     1.007825032230
         H           -1.708624251187     0.596605934696     2.011008098894     1.007825032230

  Running in c1 symmetry.

  Rotational constants: A =      0.22067  B =      0.03914  C =      0.03520 [cm^-1]
  Rotational constants: A =   6615.59371  B =   1173.42185  C =   1055.22261 [MHz]
  Nuclear repulsion =  177.006525793296589

  Charge       = 0
  Multiplicity = 1
  Electrons    = 44
  Nalpha       = 22
  Nbeta        = 22

  ==> Algorithm <==

  SCF Algorithm Type is PK.
  DIIS enabled.
  MOM disabled.
  Fractional occupation disabled.
  Guess Type is SAD.
  Energy threshold   = 1.00e-06
  Density threshold  = 1.00e-10
  Integral threshold = 0.00e+00

  ==> Primary Basis <==

  Basis Set: CC-PVDZ
    Blend: CC-PVDZ
    Number of shells: 72
    Number of basis function: 140
    Number of Cartesian functions: 145
    Spherical Harmonics?: true
    Max angular momentum: 2

  ==> Pre-Iterations <==

   -------------------------------------------------------
    Irrep   Nso     Nmo     Nalpha   Nbeta   Ndocc  Nsocc
   -------------------------------------------------------
     A        140     140       0       0       0       0
   -------------------------------------------------------
    Total     140     140      22      22      22       0
   -------------------------------------------------------

  ==> Integral Setup <==

  Using integral reordering PK algorithm.
  Sizing the integral batches needed.
  Building batch lookup table.
   Calculation information:
      Number of atoms:                  19
      Number of AO shells:              72
      Number of primitives:            180
      Number of atomic orbitals:       145
      Number of basis functions:       140

      Integral cutoff                 1.00e-12
      Number of threads:                 1

	Batch   1 pq = [       0,    9405] index = [             0,44231715] size =     44231715
	Batch   2 pq = [    9405,    9870] index = [      44231715,48713385] size =      4481670
  Task number: 5
  Buffer size: 11059200
  Buffer per thread: 2
  We computed 2833544 shell quartets total.
  Whereas there are 3454506 unique shell quartets.

  ==> DiskJK: Disk-Based J/K Matrices <==

    J tasked:                  Yes
    K tasked:                  Yes
    wK tasked:                  No
    Memory [MiB]:              375
    Schwarz Cutoff:          1E-12

    OpenMP threads:              1

  Minimum eigenvalue in the overlap matrix is 5.7114093571E-03.
  Using Symmetric Orthogonalization.

  SCF Guess: Superposition of Atomic Densities via on-the-fly atomic UHF.

  ==> Iterations <==

                        Total Energy        Delta E     RMS |[F,P]|

   @RHF iter SAD:  -196.33159319308092   -1.96332e+02   0.00000e+00 
   @RHF iter   1:  -197.31230411042191   -9.80711e-01   3.78154e-03 DIIS
   @RHF iter   2:  -197.47138740260019   -1.59083e-01   1.61899e-03 DIIS
   @RHF iter   3:  -197.49916353420073   -2.77761e-02   3.24019e-04 DIIS
   @RHF iter   4:  -197.50137543292652   -2.21190e-03   4.84845e-05 DIIS
   @RHF iter   5:  -197.50141438638812   -3.89535e-05   1.49803e-05 DIIS
   @RHF iter   6:  -197.50141782508592   -3.43870e-06   2.40374e-06 DIIS
   @RHF iter   7:  -197.50141793334248   -1.08257e-07   4.69893e-07 DIIS
   @RHF iter   8:  -197.50141793804227   -4.69979e-09   1.27172e-07 DIIS
   @RHF iter   9:  -197.50141793836460   -3.22331e-10   3.92182e-08 DIIS
   @RHF iter  10:  -197.50141793840032   -3.57261e-11   8.14844e-09 DIIS
   @RHF iter  11:  -197.50141793840257   -2.24532e-12   1.52501e-09 DIIS
   @RHF iter  12:  -197.50141793840345   -8.81073e-13   2.95043e-10 DIIS
   @RHF iter  13:  -197.50141793840385   -3.97904e-13   6.46689e-11 DIIS
  Energy and wave function converged.


  ==> Post-Iterations <==

    Orbital Energies [Eh]
    ---------------------

    Doubly Occupied:                                                      

       1A    -11.219662     2A    -11.218238     3A    -11.217676  
       4A    -11.217490     5A    -11.216444     6A     -1.048148  
       7A     -1.021019     8A     -0.923751     9A     -0.836980  
      10A     -0.792771    11A     -0.627642    12A     -0.601411  
      13A     -0.599376    14A     -0.590895    15A     -0.542220  
      16A     -0.536740    17A     -0.500728    18A     -0.488393  
      19A     -0.487490    20A     -0.473505    21A     -0.466429  
      22A     -0.458261  

    Virtual:                                                              

      23A      0.169472    24A      0.193623    25A      0.216015  
      26A      0.221737    27A      0.235843    28A      0.252428  
      29A      0.257202    30A      0.264510    31A      0.271270  
      32A      0.278905    33A      0.297029    34A      0.310544  
      35A      0.318881    36A      0.329881    37A      0.372069  
      38A      0.396716    39A      0.428671    40A      0.567227  
      41A      0.573371    42A      0.601561    43A      0.605963  
      44A      0.618808    45A      0.628139    46A      0.639458  
      47A      0.675976    48A      0.683283    49A      0.741967  
      50A      0.794130    51A      0.818615    52A      0.847237  
      53A      0.854733    54A      0.870248    55A      0.879609  
      56A      0.892176    57A      0.893644    58A      0.898715  
      59A      0.900701    60A      0.904822    61A      0.914576  
      62A      0.920460    63A      0.925497    64A      0.936557  
      65A      0.950072    66A      0.967501    67A      0.994683  
      68A      0.999022    69A      1.110070    70A      1.122997  
      71A      1.125581    72A      1.163729    73A      1.233939  
      74A      1.253924    75A      1.375443    76A      1.471661  
      77A      1.477974    78A      1.479823    79A      1.496234  
      80A      1.514466    81A      1.576809    82A      1.629018  
      83A      1.662833    84A      1.678099    85A      1.681017  
      86A      1.690188    87A      1.706240    88A      1.839944  
      89A      1.853433    90A      1.861103    91A      1.877483  
      92A      1.892544    93A      1.904551    94A      1.921809  
      95A      1.924344    96A      1.932424    97A      1.945201  
      98A      1.946625    99A      1.957532   100A      1.960123  
     101A      1.968830   102A      1.976997   103A      1.985558  
     104A      2.006901   105A      2.015945   106A      2.043867  
     107A      2.053867   108A      2.100244   109A      2.104993  
     110A      2.112931   111A      2.193356   112A      2.275668  
     113A      2.287788   114A      2.300027   115A      2.311563  
     116A      2.321513   117A      2.350544   118A      2.456286  
     119A      2.467478   120A      2.486565   121A      2.535560  
     122A      2.565375   123A      2.566161   124A      2.571376  
     125A      2.619902   126A      2.640196   127A      2.754796  
     128A      2.762449   129A      2.762739   130A      2.789204  
     131A      2.797117   132A      2.808909   133A      2.846418  
     134A      2.850146   135A      2.909058   136A      2.944552  
     137A      2.953211   138A      2.959383   139A      2.969627  
     140A      3.059642  

    Final Occupation by Irrep:
              A 
    DOCC [    22 ]

  @RHF Final Energy:  -197.50141793840385

   => Energetics <=

    Nuclear Repulsion Energy =            177.0065257932965892
    One-Electron Energy =                -614.8453495334587160
    Two-Electron Energy =                 240.3374058017582797
    Total Energy =                       -197.5014179384038471

Computation Completed


Properties will be evaluated at   0.000000,   0.000000,   0.000000 [a0]

Properties computed using the SCF density matrix

  Nuclear Dipole Moment: [e a0]
     X:     0.1880      Y:    -1.1668      Z:    -0.6289

  Electronic Dipole Moment: [e a0]
     X:    -0.2118      Y:     1.1431      Z:     0.5955

  Dipole Moment: [e a0]
     X:    -0.0238      Y:    -0.0237      Z:    -0.0334     Total:     0.0473

  Dipole Moment: [D]
     X:    -0.0605      Y:    -0.0602      Z:    -0.0848     Total:     0.1203


*** tstop() called on ds3 at Tue Apr 28 09:02:11 2020
Module time:
	user time   =      17.39 seconds =       0.29 minutes
	system time =       7.67 seconds =       0.13 minutes
	total time  =         25 seconds =       0.42 minutes
Total time:
	user time   =      17.39 seconds =       0.29 minutes
	system time =       7.67 seconds =       0.13 minutes
	total time  =         25 seconds =       0.42 minutes
                                     G D M A

                                 by Anthony Stone

                           version 2.2.06, 22 June 2011

               Distributed Multipoles from Gaussian wavefunctions


Starting at 9:2:11 on 28 Apr 2020   


Using SCF density matrix from file ./SSI/SSI-234LEU-260LYS-1-dimer.test.7749.fchk


                         Distributed Multipole Analysis

Standard DMA

Positions and radii in angstrom
Multipole moments in atomic units, ea_0^k for rank k

C          x = -0.225169  y = -1.891694  z = -0.980932 angstrom
           Maximum rank =  0   Radius =  0.650 angstrom
                   Q00  =  -0.233987

C          x = -0.057169  y = -2.560694  z = -2.339932 angstrom
           Maximum rank =  0   Radius =  0.650 angstrom
                   Q00  =  -0.236536

H          x = -1.109169  y = -1.254694  z = -0.995932 angstrom
           Maximum rank =  0   Radius =  0.325 angstrom
                   Q00  =   0.079462

H          x = -0.342169  y = -2.654694  z = -0.211932 angstrom
           Maximum rank =  0   Radius =  0.325 angstrom
                   Q00  =   0.079855

H          x =  0.653831  y = -1.290694  z = -0.755932 angstrom
           Maximum rank =  0   Radius =  0.325 angstrom
                   Q00  =   0.076648

H          x =  0.828831  y = -3.195694  z = -2.316932 angstrom
           Maximum rank =  0   Radius =  0.325 angstrom
                   Q00  =   0.078672

H          x =  0.065941  y = -1.808394  z = -3.132992 angstrom
           Maximum rank =  0   Radius =  0.325 angstrom
                   Q00  =   0.078701

H          x = -0.942856  y = -3.177594  z = -2.551962 angstrom
           Maximum rank =  0   Radius =  0.325 angstrom
                   Q00  =   0.077972

C          x = -0.250169  y =  1.565306  z =  0.699068 angstrom
           Maximum rank =  0   Radius =  0.650 angstrom
                   Q00  =  -0.092129

C          x =  1.138831  y =  2.223306  z =  0.715068 angstrom
           Maximum rank =  0   Radius =  0.650 angstrom
                   Q00  =  -0.245200

C          x = -0.623169  y =  0.768306  z =  1.963068 angstrom
           Maximum rank =  0   Radius =  0.650 angstrom
                   Q00  =  -0.234308

H          x = -0.978169  y =  2.361306  z =  0.550068 angstrom
           Maximum rank =  0   Radius =  0.325 angstrom
                   Q00  =   0.043352

H          x = -0.269169  y =  0.895306  z = -0.160932 angstrom
           Maximum rank =  0   Radius =  0.325 angstrom
                   Q00  =   0.048494

H          x =  1.211831  y =  2.866306  z =  1.598068 angstrom
           Maximum rank =  0   Radius =  0.325 angstrom
                   Q00  =   0.077721

H          x = -0.104169  y = -0.189694  z =  1.942068 angstrom
           Maximum rank =  0   Radius =  0.325 angstrom
                   Q00  =   0.080650

H          x = -0.310169  y =  1.333306  z =  2.841068 angstrom
           Maximum rank =  0   Radius =  0.325 angstrom
                   Q00  =   0.076556

H          x =  1.291308  y =  2.831706  z = -0.188582 angstrom
           Maximum rank =  0   Radius =  0.325 angstrom
                   Q00  =   0.084263

H          x =  1.913341  y =  1.442306  z =  0.702078 angstrom
           Maximum rank =  0   Radius =  0.325 angstrom
                   Q00  =   0.073954

H          x = -1.708624  y =  0.596606  z =  2.011008 angstrom
           Maximum rank =  0   Radius =  0.325 angstrom
                   Q00  =   0.085861

Total multipoles referred to origin at
           x =   0.000000,  y =    0.000000,  z =    0.000000 angstrom
                   Q00  =  -0.000000

Finished at 9:2:11 on 28 Apr 2020   

  DMA results are available in the Python driver through the
	  variable('DMA DISTRIBUTED MULTIPOLES')
  and
	  variable('DMA TOTAL MULTIPOLES')
  commands.


    Psi4 stopped on: Tuesday, 28 April 2020 09:02AM
    Psi4 wall time for execution: 0:00:24.53

*** Psi4 exiting successfully. Buy a developer a beer!
