
    -----------------------------------------------------------------------
          Psi4: An Open-Source Ab Initio Electronic Structure Package
                               Psi4 1.3.2 release

                         Git: Rev {HEAD} ecbda83 


    R. M. Parrish, L. A. Burns, D. G. A. Smith, A. C. Simmonett,
    A. E. DePrince III, E. G. Hohenstein, U. Bozkaya, A. Yu. Sokolov,
    R. Di Remigio, R. M. Richard, J. F. Gonthier, A. M. James,
    H. R. McAlexander, A. Kumar, M. Saitow, X. Wang, B. P. Pritchard,
    P. Verma, H. F. Schaefer III, K. Patkowski, R. A. King, E. F. Valeev,
    F. A. Evangelista, J. M. Turney, T. D. Crawford, and C. D. Sherrill,
    J. Chem. Theory Comput. 13(7) pp 3185--3197 (2017).
    (doi: 10.1021/acs.jctc.7b00174)


                         Additional Contributions by
    P. Kraus, H. Kruse, M. H. Lechner, M. C. Schieber, R. A. Shaw,
    A. Alenaizan, R. Galvelis, Z. L. Glick, S. Lehtola, and J. P. Misiewicz

    -----------------------------------------------------------------------


    Psi4 started on: Monday, 27 April 2020 12:38PM

    Process ID: 3583
    Host:       ds3
    PSIDATADIR: /theoryfs2/ds/metcalf/miniconda2/envs/tf2gpu/share/psi4
    Memory:     500.0 MiB
    Threads:    1
    
  ==> Input File <==

--------------------------------------------------------------------------
import numpy as np
set {scf_type pk
basis cc-pvdz
d_convergence 10
gdma_switch   0
gdma_limit    0
gdma_origin   [ 0.0,  0.0,  0.0 ]
}
molecule test {
    units Angstrom
    0 1
    --
    0 1
    C               -0.268572290460591    -0.280790990331700     1.583141202299535
    C               -0.511572290460591    -1.444790990331700     2.598141202299534
    H                0.041427709539409     0.621209009668300     2.112141202299535
    H                0.511427709539409    -0.559790990331700     0.871141202299535
    H               -1.189572290460591    -0.069790990331700     1.033141202299535
    H                0.405427709539409    -1.695790990331700     3.135141202299535
    H               -1.293669290460591    -1.170630990331700     3.321441202299535
    H               -0.842071290460591    -2.317540990331700     2.015831202299535
    C                0.807427709539409     1.392209009668300    -1.724858797700465
    C               -0.024572290460591     0.338209009668300    -2.452858797700465
    H                0.163427709539409     2.202209009668301    -1.387858797700465
    H                1.293427709539409     0.941209009668300    -0.860858797700465
    H                1.565427709539409     1.788209009668300    -2.400858797700465
    H               -0.775572290460591    -0.059790990331700    -1.769858797700465
    H                0.631427709539409    -0.469790990331700    -2.772858797700466
    H               -0.543386290460591     0.732709009668300    -3.338988797700465

}
e, wfn = energy('scf', return_wfn=True)
gdma(wfn)
dmavals = variable('DMA DISTRIBUTED MULTIPOLES')
charges = np.array(dmavals)
print(charges)
np.save('SSI-033LEU-089ILE-1-dimer.npy', np.array(charges))--------------------------------------------------------------------------

*** tstart() called on ds3
*** at Mon Apr 27 12:38:21 2020

   => Loading Basis Set <=

    Name: CC-PVDZ
    Role: ORBITAL
    Keyword: BASIS
    atoms 1-2, 9-10  entry C          line   138 file /theoryfs2/ds/metcalf/miniconda2/envs/tf2gpu/share/psi4/basis/cc-pvdz.gbs 
    atoms 3-8, 11-16 entry H          line    22 file /theoryfs2/ds/metcalf/miniconda2/envs/tf2gpu/share/psi4/basis/cc-pvdz.gbs 


         ---------------------------------------------------------
                                   SCF
               by Justin Turney, Rob Parrish, Andy Simmonett
                          and Daniel G. A. Smith
                              RHF Reference
                        1 Threads,    500 MiB Core
         ---------------------------------------------------------

  ==> Geometry <==

    Molecular point group: c1
    Full point group: C1

    Geometry (in Angstrom), charge = 0, multiplicity = 1:

       Center              X                  Y                   Z               Mass       
    ------------   -----------------  -----------------  -----------------  -----------------
         C           -0.268572290461    -0.280790990332     1.583141202300    12.000000000000
         C           -0.511572290461    -1.444790990332     2.598141202300    12.000000000000
         H            0.041427709539     0.621209009668     2.112141202300     1.007825032230
         H            0.511427709539    -0.559790990332     0.871141202300     1.007825032230
         H           -1.189572290461    -0.069790990332     1.033141202300     1.007825032230
         H            0.405427709539    -1.695790990332     3.135141202300     1.007825032230
         H           -1.293669290461    -1.170630990332     3.321441202300     1.007825032230
         H           -0.842071290461    -2.317540990332     2.015831202300     1.007825032230
         C            0.807427709539     1.392209009668    -1.724858797700    12.000000000000
         C           -0.024572290461     0.338209009668    -2.452858797700    12.000000000000
         H            0.163427709539     2.202209009668    -1.387858797700     1.007825032230
         H            1.293427709539     0.941209009668    -0.860858797700     1.007825032230
         H            1.565427709539     1.788209009668    -2.400858797700     1.007825032230
         H           -0.775572290461    -0.059790990332    -1.769858797700     1.007825032230
         H            0.631427709539    -0.469790990332    -2.772858797700     1.007825032230
         H           -0.543386290461     0.732709009668    -3.338988797700     1.007825032230

  Running in c1 symmetry.

  Rotational constants: A =      0.48285  B =      0.04873  C =      0.04605 [cm^-1]
  Rotational constants: A =  14475.62769  B =   1460.93790  C =   1380.53221 [MHz]
  Nuclear repulsion =  121.741577038734491

  Charge       = 0
  Multiplicity = 1
  Electrons    = 36
  Nalpha       = 18
  Nbeta        = 18

  ==> Algorithm <==

  SCF Algorithm Type is PK.
  DIIS enabled.
  MOM disabled.
  Fractional occupation disabled.
  Guess Type is SAD.
  Energy threshold   = 1.00e-06
  Density threshold  = 1.00e-10
  Integral threshold = 0.00e+00

  ==> Primary Basis <==

  Basis Set: CC-PVDZ
    Blend: CC-PVDZ
    Number of shells: 60
    Number of basis function: 116
    Number of Cartesian functions: 120
    Spherical Harmonics?: true
    Max angular momentum: 2

  ==> Pre-Iterations <==

   -------------------------------------------------------
    Irrep   Nso     Nmo     Nalpha   Nbeta   Ndocc  Nsocc
   -------------------------------------------------------
     A        116     116       0       0       0       0
   -------------------------------------------------------
    Total     116     116      18      18      18       0
   -------------------------------------------------------

  ==> Integral Setup <==

  Using integral reordering PK algorithm.
  Sizing the integral batches needed.
  Building batch lookup table.
   Calculation information:
      Number of atoms:                  16
      Number of AO shells:              60
      Number of primitives:            148
      Number of atomic orbitals:       120
      Number of basis functions:       116

      Integral cutoff                 1.00e-12
      Number of threads:                 1

	Batch   1 pq = [       0,    6786] index = [             0,23028291] size =     23028291
  Task number: 3
  Buffer size: 11059200
  Buffer per thread: 2
  We computed 1421847 shell quartets total.
  Whereas there are 1675365 unique shell quartets.

  ==> DiskJK: Disk-Based J/K Matrices <==

    J tasked:                  Yes
    K tasked:                  Yes
    wK tasked:                  No
    Memory [MiB]:              375
    Schwarz Cutoff:          1E-12

    OpenMP threads:              1

  Minimum eigenvalue in the overlap matrix is 7.5426703934E-03.
  Using Symmetric Orthogonalization.

  SCF Guess: Superposition of Atomic Densities via on-the-fly atomic UHF.

  ==> Iterations <==

                        Total Energy        Delta E     RMS |[F,P]|

   @RHF iter SAD:  -157.29241693433292   -1.57292e+02   0.00000e+00 
   @RHF iter   1:  -158.31111406007176   -1.01870e+00   4.16085e-03 DIIS
   @RHF iter   2:  -158.44220579341589   -1.31092e-01   1.76115e-03 DIIS
   @RHF iter   3:  -158.46479631616825   -2.25905e-02   3.46231e-04 DIIS
   @RHF iter   4:  -158.46659126151238   -1.79495e-03   3.82093e-05 DIIS
   @RHF iter   5:  -158.46661415372793   -2.28922e-05   6.47044e-06 DIIS
   @RHF iter   6:  -158.46661476703053   -6.13303e-07   1.15865e-06 DIIS
   @RHF iter   7:  -158.46661478004467   -1.30141e-08   3.26768e-07 DIIS
   @RHF iter   8:  -158.46661478103343   -9.88763e-10   3.99566e-08 DIIS
   @RHF iter   9:  -158.46661478105779   -2.43574e-11   8.37973e-09 DIIS
   @RHF iter  10:  -158.46661478105895   -1.16529e-12   2.44132e-09 DIIS
   @RHF iter  11:  -158.46661478105898   -2.84217e-14   6.93244e-10 DIIS
   @RHF iter  12:  -158.46661478105909   -1.13687e-13   1.41764e-10 DIIS
   @RHF iter  13:  -158.46661478105869    3.97904e-13   2.14069e-11 DIIS
  Energy and wave function converged.


  ==> Post-Iterations <==

    Orbital Energies [Eh]
    ---------------------

    Doubly Occupied:                                                      

       1A    -11.222995     2A    -11.221122     3A    -11.216966  
       4A    -11.215804     5A     -1.018327     6A     -1.010153  
       7A     -0.840111     8A     -0.836614     9A     -0.600403  
      10A     -0.599013    11A     -0.594491    12A     -0.591150  
      13A     -0.502142    14A     -0.494438    15A     -0.491873  
      16A     -0.487513    17A     -0.485161    18A     -0.481553  

    Virtual:                                                              

      19A      0.170849    20A      0.196849    21A      0.228546  
      22A      0.232044    23A      0.243498    24A      0.259508  
      25A      0.264350    26A      0.275993    27A      0.277060  
      28A      0.285187    29A      0.324479    30A      0.342686  
      31A      0.379960    32A      0.402019    33A      0.569645  
      34A      0.590432    35A      0.596896    36A      0.599796  
      37A      0.607764    38A      0.635487    39A      0.674372  
      40A      0.692003    41A      0.716030    42A      0.743329  
      43A      0.844323    44A      0.850011    45A      0.884510  
      46A      0.890079    47A      0.891825    48A      0.895747  
      49A      0.903500    50A      0.907063    51A      0.911646  
      52A      0.923324    53A      0.943508    54A      0.956288  
      55A      0.975928    56A      0.989521    57A      1.123240  
      58A      1.128092    59A      1.131079    60A      1.137283  
      61A      1.221372    62A      1.259404    63A      1.461407  
      64A      1.463124    65A      1.471712    66A      1.489008  
      67A      1.569792    68A      1.579673    69A      1.678806  
      70A      1.686665    71A      1.691178    72A      1.696576  
      73A      1.850299    74A      1.862538    75A      1.873671  
      76A      1.877345    77A      1.885249    78A      1.906240  
      79A      1.931967    80A      1.934376    81A      1.938216  
      82A      1.946926    83A      1.947806    84A      1.953029  
      85A      1.954907    86A      1.970840    87A      1.972403  
      88A      2.033719    89A      2.086341    90A      2.096107  
      91A      2.113043    92A      2.128484    93A      2.290245  
      94A      2.297819    95A      2.313501    96A      2.319664  
      97A      2.446160    98A      2.453424    99A      2.460687  
     100A      2.467545   101A      2.546159   102A      2.559812  
     103A      2.564438   104A      2.588615   105A      2.757776  
     106A      2.769494   107A      2.780878   108A      2.801876  
     109A      2.829439   110A      2.846404   111A      2.862085  
     112A      2.863381   113A      2.932723   114A      2.940268  
     115A      2.962190   116A      2.968417  

    Final Occupation by Irrep:
              A 
    DOCC [    18 ]

  @RHF Final Energy:  -158.46661478105869

   => Energetics <=

    Nuclear Repulsion Energy =            121.7415770387344907
    One-Electron Energy =                -452.5967293904157600
    Two-Electron Energy =                 172.3885375706225886
    Total Energy =                       -158.4666147810586949

Computation Completed


Properties will be evaluated at   0.000000,   0.000000,   0.000000 [a0]

Properties computed using the SCF density matrix

  Nuclear Dipole Moment: [e a0]
     X:    -0.0303      Y:    -0.0540      Z:    -0.0398

  Electronic Dipole Moment: [e a0]
     X:     0.0339      Y:     0.0514      Z:     0.0546

  Dipole Moment: [e a0]
     X:     0.0036      Y:    -0.0026      Z:     0.0148     Total:     0.0154

  Dipole Moment: [D]
     X:     0.0092      Y:    -0.0067      Z:     0.0376     Total:     0.0392


*** tstop() called on ds3 at Mon Apr 27 12:38:32 2020
Module time:
	user time   =       8.10 seconds =       0.13 minutes
	system time =       3.41 seconds =       0.06 minutes
	total time  =         11 seconds =       0.18 minutes
Total time:
	user time   =       8.10 seconds =       0.13 minutes
	system time =       3.41 seconds =       0.06 minutes
	total time  =         11 seconds =       0.18 minutes
                                     G D M A

                                 by Anthony Stone

                           version 2.2.06, 22 June 2011

               Distributed Multipoles from Gaussian wavefunctions


Starting at 12:38:32 on 27 Apr 2020 


Using SCF density matrix from file ./SSI/SSI-033LEU-089ILE-1-dimer.test.3583.fchk


                         Distributed Multipole Analysis

Standard DMA

Positions and radii in angstrom
Multipole moments in atomic units, ea_0^k for rank k

C          x = -0.268572  y = -0.280791  z =  1.583141 angstrom
           Maximum rank =  0   Radius =  0.650 angstrom
                   Q00  =  -0.250582

C          x = -0.511572  y = -1.444791  z =  2.598141 angstrom
           Maximum rank =  0   Radius =  0.650 angstrom
                   Q00  =  -0.243623

H          x =  0.041428  y =  0.621209  z =  2.112141 angstrom
           Maximum rank =  0   Radius =  0.325 angstrom
                   Q00  =   0.082035

H          x =  0.511428  y = -0.559791  z =  0.871141 angstrom
           Maximum rank =  0   Radius =  0.325 angstrom
                   Q00  =   0.081358

H          x = -1.189572  y = -0.069791  z =  1.033141 angstrom
           Maximum rank =  0   Radius =  0.325 angstrom
                   Q00  =   0.082953

H          x =  0.405428  y = -1.695791  z =  3.135141 angstrom
           Maximum rank =  0   Radius =  0.325 angstrom
                   Q00  =   0.084907

H          x = -1.293669  y = -1.170631  z =  3.321441 angstrom
           Maximum rank =  0   Radius =  0.325 angstrom
                   Q00  =   0.083107

H          x = -0.842071  y = -2.317541  z =  2.015831 angstrom
           Maximum rank =  0   Radius =  0.325 angstrom
                   Q00  =   0.079299

C          x =  0.807428  y =  1.392209  z = -1.724859 angstrom
           Maximum rank =  0   Radius =  0.650 angstrom
                   Q00  =  -0.231570

C          x = -0.024572  y =  0.338209  z = -2.452859 angstrom
           Maximum rank =  0   Radius =  0.650 angstrom
                   Q00  =  -0.241559

H          x =  0.163428  y =  2.202209  z = -1.387859 angstrom
           Maximum rank =  0   Radius =  0.325 angstrom
                   Q00  =   0.079285

H          x =  1.293428  y =  0.941209  z = -0.860859 angstrom
           Maximum rank =  0   Radius =  0.325 angstrom
                   Q00  =   0.081552

H          x =  1.565428  y =  1.788209  z = -2.400859 angstrom
           Maximum rank =  0   Radius =  0.325 angstrom
                   Q00  =   0.078028

H          x = -0.775572  y = -0.059791  z = -1.769859 angstrom
           Maximum rank =  0   Radius =  0.325 angstrom
                   Q00  =   0.078260

H          x =  0.631428  y = -0.469791  z = -2.772859 angstrom
           Maximum rank =  0   Radius =  0.325 angstrom
                   Q00  =   0.076914

H          x = -0.543386  y =  0.732709  z = -3.338989 angstrom
           Maximum rank =  0   Radius =  0.325 angstrom
                   Q00  =   0.079638

Total multipoles referred to origin at
           x =   0.000000,  y =    0.000000,  z =    0.000000 angstrom
                   Q00  =  -0.000000

Finished at 12:38:32 on 27 Apr 2020 

  DMA results are available in the Python driver through the
	  variable('DMA DISTRIBUTED MULTIPOLES')
  and
	  variable('DMA TOTAL MULTIPOLES')
  commands.


    Psi4 stopped on: Monday, 27 April 2020 12:38PM
    Psi4 wall time for execution: 0:00:11.33

*** Psi4 exiting successfully. Buy a developer a beer!
