
    -----------------------------------------------------------------------
          Psi4: An Open-Source Ab Initio Electronic Structure Package
                               Psi4 1.3.2 release

                         Git: Rev {HEAD} ecbda83 


    R. M. Parrish, L. A. Burns, D. G. A. Smith, A. C. Simmonett,
    A. E. DePrince III, E. G. Hohenstein, U. Bozkaya, A. Yu. Sokolov,
    R. Di Remigio, R. M. Richard, J. F. Gonthier, A. M. James,
    H. R. McAlexander, A. Kumar, M. Saitow, X. Wang, B. P. Pritchard,
    P. Verma, H. F. Schaefer III, K. Patkowski, R. A. King, E. F. Valeev,
    F. A. Evangelista, J. M. Turney, T. D. Crawford, and C. D. Sherrill,
    J. Chem. Theory Comput. 13(7) pp 3185--3197 (2017).
    (doi: 10.1021/acs.jctc.7b00174)


                         Additional Contributions by
    P. Kraus, H. Kruse, M. H. Lechner, M. C. Schieber, R. A. Shaw,
    A. Alenaizan, R. Galvelis, Z. L. Glick, S. Lehtola, and J. P. Misiewicz

    -----------------------------------------------------------------------


    Psi4 started on: Monday, 27 April 2020 05:36AM

    Process ID: 28866
    Host:       ds3
    PSIDATADIR: /theoryfs2/ds/metcalf/miniconda2/envs/tf2gpu/share/psi4
    Memory:     500.0 MiB
    Threads:    1
    
  ==> Input File <==

--------------------------------------------------------------------------
import numpy as np
set {scf_type pk
basis cc-pvdz
d_convergence 10
gdma_switch   0
gdma_limit    0
gdma_origin   [ 0.0,  0.0,  0.0 ]
}
molecule test {
    units Angstrom
    0 1
    --
    0 1
    C               -2.127565282938612    -0.555355239342006    -3.026758494218595
    C               -1.383565282938612    -0.423355239342005    -1.708758494218594
    O               -1.107565282938612     0.740644760657994    -1.341758494218595
    O               -1.103565282938612    -1.465355239342006    -1.039758494218594
    H               -1.833565282938612     0.270644760657994    -3.669758494218594
    H               -3.198565282938612    -0.452355239342006    -2.833758494218594
    H               -1.968809282938612    -1.510765239342005    -3.548278494218595
    C                1.241434717061388     2.286644760657995     1.029241505781405
    C                1.113434717061388    -0.125355239342006     1.505241505781405
    N                0.770434717061388     0.929644760657994     0.794241505781405
    N                1.994434717061388    -0.060355239342006     2.493241505781405
    N                0.581434717061388    -1.309355239342006     1.224241505781406
    H                0.084434717061388     0.790644760657994     0.048241505781405
    H                1.375434717061388     2.467644760657994     2.098241505781405
    H                0.450434717061388     2.962644760657995     0.698241505781405
    H                2.383434717061388     0.832644760657994     2.779241505781405
    H                2.193434717061388    -0.877355239342006     3.047241505781405
    H               -0.071565282938612    -1.379355239342006     0.435241505781406
    H                0.789434717061388    -2.126355239342006     1.772241505781405
    H                2.160824717061388     2.557304760657995     0.489361505781405

}
e, wfn = energy('scf', return_wfn=True)
gdma(wfn)
dmavals = variable('DMA DISTRIBUTED MULTIPOLES')
charges = np.array(dmavals)
print(charges)
np.save('SSI-080GLU-155ARG-1-dimer.npy', np.array(charges))--------------------------------------------------------------------------

*** tstart() called on ds3
*** at Mon Apr 27 05:36:52 2020

   => Loading Basis Set <=

    Name: CC-PVDZ
    Role: ORBITAL
    Keyword: BASIS
    atoms 1-2, 8-9   entry C          line   138 file /theoryfs2/ds/metcalf/miniconda2/envs/tf2gpu/share/psi4/basis/cc-pvdz.gbs 
    atoms 3-4        entry O          line   198 file /theoryfs2/ds/metcalf/miniconda2/envs/tf2gpu/share/psi4/basis/cc-pvdz.gbs 
    atoms 5-7, 13-20 entry H          line    22 file /theoryfs2/ds/metcalf/miniconda2/envs/tf2gpu/share/psi4/basis/cc-pvdz.gbs 
    atoms 10-12      entry N          line   168 file /theoryfs2/ds/metcalf/miniconda2/envs/tf2gpu/share/psi4/basis/cc-pvdz.gbs 


         ---------------------------------------------------------
                                   SCF
               by Justin Turney, Rob Parrish, Andy Simmonett
                          and Daniel G. A. Smith
                              RHF Reference
                        1 Threads,    500 MiB Core
         ---------------------------------------------------------

  ==> Geometry <==

    Molecular point group: c1
    Full point group: C1

    Geometry (in Angstrom), charge = 0, multiplicity = 1:

       Center              X                  Y                   Z               Mass       
    ------------   -----------------  -----------------  -----------------  -----------------
         C           -2.127565282939    -0.555355239342    -3.026758494219    12.000000000000
         C           -1.383565282939    -0.423355239342    -1.708758494219    12.000000000000
         O           -1.107565282939     0.740644760658    -1.341758494219    15.994914619570
         O           -1.103565282939    -1.465355239342    -1.039758494219    15.994914619570
         H           -1.833565282939     0.270644760658    -3.669758494219     1.007825032230
         H           -3.198565282939    -0.452355239342    -2.833758494219     1.007825032230
         H           -1.968809282939    -1.510765239342    -3.548278494219     1.007825032230
         C            1.241434717061     2.286644760658     1.029241505781    12.000000000000
         C            1.113434717061    -0.125355239342     1.505241505781    12.000000000000
         N            0.770434717061     0.929644760658     0.794241505781    14.003074004430
         N            1.994434717061    -0.060355239342     2.493241505781    14.003074004430
         N            0.581434717061    -1.309355239342     1.224241505781    14.003074004430
         H            0.084434717061     0.790644760658     0.048241505781     1.007825032230
         H            1.375434717061     2.467644760658     2.098241505781     1.007825032230
         H            0.450434717061     2.962644760658     0.698241505781     1.007825032230
         H            2.383434717061     0.832644760658     2.779241505781     1.007825032230
         H            2.193434717061    -0.877355239342     3.047241505781     1.007825032230
         H           -0.071565282939    -1.379355239342     0.435241505781     1.007825032230
         H            0.789434717061    -2.126355239342     1.772241505781     1.007825032230
         H            2.160824717061     2.557304760658     0.489361505781     1.007825032230

  Running in c1 symmetry.

  Rotational constants: A =      0.09846  B =      0.02493  C =      0.02011 [cm^-1]
  Rotational constants: A =   2951.61651  B =    747.33656  C =    602.98094 [MHz]
  Nuclear repulsion =  464.688340100509663

  Charge       = 0
  Multiplicity = 1
  Electrons    = 72
  Nalpha       = 36
  Nbeta        = 36

  ==> Algorithm <==

  SCF Algorithm Type is PK.
  DIIS enabled.
  MOM disabled.
  Fractional occupation disabled.
  Guess Type is SAD.
  Energy threshold   = 1.00e-06
  Density threshold  = 1.00e-10
  Integral threshold = 0.00e+00

  ==> Primary Basis <==

  Basis Set: CC-PVDZ
    Blend: CC-PVDZ
    Number of shells: 87
    Number of basis function: 181
    Number of Cartesian functions: 190
    Spherical Harmonics?: true
    Max angular momentum: 2

  ==> Pre-Iterations <==

   -------------------------------------------------------
    Irrep   Nso     Nmo     Nalpha   Nbeta   Ndocc  Nsocc
   -------------------------------------------------------
     A        181     181       0       0       0       0
   -------------------------------------------------------
    Total     181     181      36      36      36       0
   -------------------------------------------------------

  ==> Integral Setup <==

  Using integral reordering PK algorithm.
  Sizing the integral batches needed.
  Building batch lookup table.
   Calculation information:
      Number of atoms:                  20
      Number of AO shells:              87
      Number of primitives:            253
      Number of atomic orbitals:       190
      Number of basis functions:       181

      Integral cutoff                 1.00e-12
      Number of threads:                 1

	Batch   1 pq = [       0,    9405] index = [             0,44231715] size =     44231715
	Batch   2 pq = [    9405,   13301] index = [      44231715,88464951] size =     44233236
	Batch   3 pq = [   13301,   16471] index = [      88464951,135655156] size =     47190205
  Task number: 13
  Buffer size: 11059200
  Buffer per thread: 2
  We computed 5932122 shell quartets total.
  Whereas there are 7328706 unique shell quartets.

  ==> DiskJK: Disk-Based J/K Matrices <==

    J tasked:                  Yes
    K tasked:                  Yes
    wK tasked:                  No
    Memory [MiB]:              375
    Schwarz Cutoff:          1E-12

    OpenMP threads:              1

  Minimum eigenvalue in the overlap matrix is 3.7389669906E-03.
  Using Symmetric Orthogonalization.

  SCF Guess: Superposition of Atomic Densities via on-the-fly atomic UHF.

  ==> Iterations <==

                        Total Energy        Delta E     RMS |[F,P]|

   @RHF iter SAD:  -469.70797565659217   -4.69708e+02   0.00000e+00 
   @RHF iter   1:  -470.73641190766546   -1.02844e+00   4.16352e-03 DIIS
   @RHF iter   2:  -470.95393444137289   -2.17523e-01   2.15130e-03 DIIS
   @RHF iter   3:  -471.00935489756603   -5.54205e-02   3.92109e-04 DIIS
   @RHF iter   4:  -471.01250680669386   -3.15191e-03   1.30149e-04 DIIS
   @RHF iter   5:  -471.01286235361169   -3.55547e-04   2.34317e-05 DIIS
   @RHF iter   6:  -471.01287895218633   -1.65986e-05   7.47278e-06 DIIS
   @RHF iter   7:  -471.01288031387958   -1.36169e-06   2.11192e-06 DIIS
   @RHF iter   8:  -471.01288046415090   -1.50271e-07   7.76323e-07 DIIS
   @RHF iter   9:  -471.01288047872856   -1.45777e-08   3.22576e-07 DIIS
   @RHF iter  10:  -471.01288048082631   -2.09775e-09   7.08199e-08 DIIS
   @RHF iter  11:  -471.01288048107290   -2.46587e-10   2.78089e-08 DIIS
   @RHF iter  12:  -471.01288048110655   -3.36513e-11   1.19630e-08 DIIS
   @RHF iter  13:  -471.01288048111041   -3.86535e-12   4.42257e-09 DIIS
   @RHF iter  14:  -471.01288048111218   -1.76215e-12   1.18339e-09 DIIS
   @RHF iter  15:  -471.01288048111229   -1.13687e-13   4.32222e-10 DIIS
   @RHF iter  16:  -471.01288048111246   -1.70530e-13   1.37288e-10 DIIS
   @RHF iter  17:  -471.01288048111462   -2.16005e-12   6.12089e-11 DIIS
  Energy and wave function converged.


  ==> Post-Iterations <==

    Orbital Energies [Eh]
    ---------------------

    Doubly Occupied:                                                      

       1A    -20.436407     2A    -20.433119     3A    -15.644936  
       4A    -15.607580     5A    -15.599210     6A    -11.423616  
       7A    -11.300636     8A    -11.282081     9A    -11.174903  
      10A     -1.379623    11A     -1.317354    12A     -1.242797  
      13A     -1.219152    14A     -1.204857    15A     -0.990710  
      16A     -0.927618    17A     -0.877305    18A     -0.813295  
      19A     -0.774517    20A     -0.708045    21A     -0.688591  
      22A     -0.666606    23A     -0.649715    24A     -0.633696  
      25A     -0.595727    26A     -0.577263    27A     -0.561441  
      28A     -0.553471    29A     -0.542868    30A     -0.487079  
      31A     -0.462006    32A     -0.454394    33A     -0.414495  
      34A     -0.350125    35A     -0.346399    36A     -0.337948  

    Virtual:                                                              

      37A      0.127083    38A      0.159528    39A      0.183847  
      40A      0.210616    41A      0.215933    42A      0.242911  
      43A      0.248836    44A      0.258823    45A      0.270680  
      46A      0.304583    47A      0.309826    48A      0.343879  
      49A      0.365972    50A      0.414857    51A      0.432580  
      52A      0.447738    53A      0.485174    54A      0.498223  
      55A      0.585437    56A      0.593675    57A      0.599375  
      58A      0.613487    59A      0.669723    60A      0.679543  
      61A      0.683680    62A      0.695750    63A      0.700837  
      64A      0.720332    65A      0.732993    66A      0.768467  
      67A      0.798727    68A      0.814064    69A      0.826957  
      70A      0.834035    71A      0.841311    72A      0.855176  
      73A      0.892727    74A      0.904233    75A      0.912616  
      76A      0.917779    77A      0.924231    78A      0.947591  
      79A      0.959655    80A      0.970313    81A      0.986458  
      82A      0.995615    83A      1.049655    84A      1.069709  
      85A      1.084945    86A      1.116494    87A      1.134260  
      88A      1.144218    89A      1.206249    90A      1.212255  
      91A      1.253289    92A      1.265644    93A      1.292326  
      94A      1.303955    95A      1.324899    96A      1.343676  
      97A      1.371362    98A      1.381202    99A      1.401358  
     100A      1.430524   101A      1.448651   102A      1.490463  
     103A      1.505487   104A      1.554325   105A      1.578366  
     106A      1.586305   107A      1.614712   108A      1.650234  
     109A      1.670489   110A      1.682495   111A      1.697977  
     112A      1.703588   113A      1.728905   114A      1.763693  
     115A      1.813265   116A      1.820337   117A      1.861202  
     118A      1.883069   119A      1.889034   120A      1.900035  
     121A      1.921791   122A      1.930390   123A      1.942373  
     124A      1.945142   125A      1.966828   126A      1.983087  
     127A      1.995028   128A      2.009441   129A      2.023195  
     130A      2.066830   131A      2.083711   132A      2.122225  
     133A      2.153479   134A      2.169184   135A      2.229978  
     136A      2.252091   137A      2.273668   138A      2.286864  
     139A      2.310495   140A      2.337436   141A      2.350819  
     142A      2.392413   143A      2.414392   144A      2.454568  
     145A      2.469887   146A      2.496014   147A      2.498516  
     148A      2.547921   149A      2.557168   150A      2.590524  
     151A      2.599941   152A      2.615124   153A      2.666102  
     154A      2.724931   155A      2.730959   156A      2.743174  
     157A      2.791477   158A      2.801715   159A      2.863374  
     160A      2.865583   161A      2.883052   162A      2.917063  
     163A      2.955337   164A      2.981143   165A      2.993977  
     166A      3.053680   167A      3.074128   168A      3.122401  
     169A      3.146938   170A      3.177698   171A      3.226320  
     172A      3.309405   173A      3.398312   174A      3.450964  
     175A      3.618643   176A      3.664731   177A      3.752993  
     178A      3.821895   179A      3.885197   180A      3.926044  
     181A      4.048289  

    Final Occupation by Irrep:
              A 
    DOCC [    36 ]

  @RHF Final Energy:  -471.01288048111462

   => Energetics <=

    Nuclear Repulsion Energy =            464.6883401005096630
    One-Electron Energy =               -1566.0432667499842410
    Two-Electron Energy =                 630.3420461683600706
    Total Energy =                       -471.0128804811146210

Computation Completed


Properties will be evaluated at   0.000000,   0.000000,   0.000000 [a0]

Properties computed using the SCF density matrix

  Nuclear Dipole Moment: [e a0]
     X:     2.1967      Y:     3.3121      Z:     1.2094

  Electronic Dipole Moment: [e a0]
     X:     0.5720      Y:    -2.7755      Z:     2.1639

  Dipole Moment: [e a0]
     X:     2.7687      Y:     0.5365      Z:     3.3733     Total:     4.3968

  Dipole Moment: [D]
     X:     7.0372      Y:     1.3637      Z:     8.5740     Total:    11.1757


*** tstop() called on ds3 at Mon Apr 27 05:37:52 2020
Module time:
	user time   =      41.86 seconds =       0.70 minutes
	system time =      19.69 seconds =       0.33 minutes
	total time  =         60 seconds =       1.00 minutes
Total time:
	user time   =      41.86 seconds =       0.70 minutes
	system time =      19.69 seconds =       0.33 minutes
	total time  =         60 seconds =       1.00 minutes
                                     G D M A

                                 by Anthony Stone

                           version 2.2.06, 22 June 2011

               Distributed Multipoles from Gaussian wavefunctions


Starting at 5:37:52 on 27 Apr 2020  


Using SCF density matrix from file ./SSI/SSI-080GLU-155ARG-1-dimer.test.28866.fchk


                         Distributed Multipole Analysis

Standard DMA

Positions and radii in angstrom
Multipole moments in atomic units, ea_0^k for rank k

C          x = -2.127565  y = -0.555355  z = -3.026758 angstrom
           Maximum rank =  0   Radius =  0.650 angstrom
                   Q00  =  -0.250714

C          x = -1.383565  y = -0.423355  z = -1.708758 angstrom
           Maximum rank =  0   Radius =  0.650 angstrom
                   Q00  =   0.864696

O          x = -1.107565  y =  0.740645  z = -1.341758 angstrom
           Maximum rank =  0   Radius =  0.650 angstrom
                   Q00  =  -0.916764

O          x = -1.103565  y = -1.465355  z = -1.039758 angstrom
           Maximum rank =  0   Radius =  0.650 angstrom
                   Q00  =  -0.936248

H          x = -1.833565  y =  0.270645  z = -3.669758 angstrom
           Maximum rank =  0   Radius =  0.325 angstrom
                   Q00  =   0.086299

H          x = -3.198565  y = -0.452355  z = -2.833758 angstrom
           Maximum rank =  0   Radius =  0.325 angstrom
                   Q00  =   0.108461

H          x = -1.968809  y = -1.510765  z = -3.548278 angstrom
           Maximum rank =  0   Radius =  0.325 angstrom
                   Q00  =   0.083105

C          x =  1.241435  y =  2.286645  z =  1.029242 angstrom
           Maximum rank =  0   Radius =  0.650 angstrom
                   Q00  =  -0.106265

C          x =  1.113435  y = -0.125355  z =  1.505242 angstrom
           Maximum rank =  0   Radius =  0.650 angstrom
                   Q00  =   1.061739

N          x =  0.770435  y =  0.929645  z =  0.794242 angstrom
           Maximum rank =  0   Radius =  0.650 angstrom
                   Q00  =  -0.498462

N          x =  1.994435  y = -0.060355  z =  2.493242 angstrom
           Maximum rank =  0   Radius =  0.650 angstrom
                   Q00  =  -0.584993

N          x =  0.581435  y = -1.309355  z =  1.224242 angstrom
           Maximum rank =  0   Radius =  0.650 angstrom
                   Q00  =  -0.626482

H          x =  0.084435  y =  0.790645  z =  0.048242 angstrom
           Maximum rank =  0   Radius =  0.325 angstrom
                   Q00  =   0.329553

H          x =  1.375435  y =  2.467645  z =  2.098242 angstrom
           Maximum rank =  0   Radius =  0.325 angstrom
                   Q00  =   0.072156

H          x =  0.450435  y =  2.962645  z =  0.698242 angstrom
           Maximum rank =  0   Radius =  0.325 angstrom
                   Q00  =   0.153456

H          x =  2.383435  y =  0.832645  z =  2.779242 angstrom
           Maximum rank =  0   Radius =  0.325 angstrom
                   Q00  =   0.241122

H          x =  2.193435  y = -0.877355  z =  3.047242 angstrom
           Maximum rank =  0   Radius =  0.325 angstrom
                   Q00  =   0.236974

H          x = -0.071565  y = -1.379355  z =  0.435242 angstrom
           Maximum rank =  0   Radius =  0.325 angstrom
                   Q00  =   0.358838

H          x =  0.789435  y = -2.126355  z =  1.772242 angstrom
           Maximum rank =  0   Radius =  0.325 angstrom
                   Q00  =   0.220373

H          x =  2.160825  y =  2.557305  z =  0.489362 angstrom
           Maximum rank =  0   Radius =  0.325 angstrom
                   Q00  =   0.103158

Total multipoles referred to origin at
           x =   0.000000,  y =    0.000000,  z =    0.000000 angstrom
                   Q00  =  -0.000000

Finished at 5:37:52 on 27 Apr 2020  

  DMA results are available in the Python driver through the
	  variable('DMA DISTRIBUTED MULTIPOLES')
  and
	  variable('DMA TOTAL MULTIPOLES')
  commands.


    Psi4 stopped on: Monday, 27 April 2020 05:37AM
    Psi4 wall time for execution: 0:00:59.73

*** Psi4 exiting successfully. Buy a developer a beer!
