
    -----------------------------------------------------------------------
          Psi4: An Open-Source Ab Initio Electronic Structure Package
                               Psi4 1.3.2 release

                         Git: Rev {HEAD} ecbda83 


    R. M. Parrish, L. A. Burns, D. G. A. Smith, A. C. Simmonett,
    A. E. DePrince III, E. G. Hohenstein, U. Bozkaya, A. Yu. Sokolov,
    R. Di Remigio, R. M. Richard, J. F. Gonthier, A. M. James,
    H. R. McAlexander, A. Kumar, M. Saitow, X. Wang, B. P. Pritchard,
    P. Verma, H. F. Schaefer III, K. Patkowski, R. A. King, E. F. Valeev,
    F. A. Evangelista, J. M. Turney, T. D. Crawford, and C. D. Sherrill,
    J. Chem. Theory Comput. 13(7) pp 3185--3197 (2017).
    (doi: 10.1021/acs.jctc.7b00174)


                         Additional Contributions by
    P. Kraus, H. Kruse, M. H. Lechner, M. C. Schieber, R. A. Shaw,
    A. Alenaizan, R. Galvelis, Z. L. Glick, S. Lehtola, and J. P. Misiewicz

    -----------------------------------------------------------------------


    Psi4 started on: Tuesday, 28 April 2020 02:07PM

    Process ID: 26937
    Host:       ds3
    PSIDATADIR: /theoryfs2/ds/metcalf/miniconda2/envs/tf2gpu/share/psi4
    Memory:     500.0 MiB
    Threads:    1
    
  ==> Input File <==

--------------------------------------------------------------------------
import numpy as np
set {scf_type pk
basis cc-pvdz
d_convergence 10
gdma_switch   0
gdma_limit    0
gdma_origin   [ 0.0,  0.0,  0.0 ]
}
molecule test {
    units Angstrom
    0 1
    --
    0 1
    C                1.146212860293869    -2.011402958152400     2.756951121950485
    C                1.601212860293869    -3.323402958152401     3.380951121950484
    H                0.168212860293869    -1.719402958152401     3.136951121950485
    H                1.878212860293869    -1.266402958152401     3.045951121950484
    H                1.125212860293869    -2.078402958152400     1.671951121950485
    H                2.527212860293869    -3.644402958152401     2.901951121950485
    H                0.825339860293869    -4.091373958152401     3.245892121950484
    H                1.782902860293869    -3.177044958152401     4.455921121950485
    C               -0.413787139706131    -1.670402958152400    -2.538048878049516
    C               -0.619787139706131    -0.528402958152401    -0.289048878049515
    C               -0.434787139706131    -0.429402958152401    -1.673048878049515
    C               -0.581787139706131     0.610597041847599     0.522951121950485
    C               -0.218787139706131     0.831597041847600    -2.234048878049516
    C               -0.355787139706131     1.861597041847600    -0.051048878049515
    C               -0.179787139706131     1.977597041847599    -1.432048878049515
    O               -0.284787139706131     2.972597041847599     0.727951121950485
    H               -0.789787139706131    -1.498402958152401     0.160951121950485
    H               -0.716787139706131     0.530597041847599     1.590951121950485
    H               -1.027787139706131    -1.488402958152401    -3.419048878049515
    H               -0.855787139706131    -2.494402958152401    -1.978048878049515
    H               -0.074787139706131     0.920597041847600    -3.300048878049516
    H               -0.016787139706131     2.943597041847599    -1.886048878049515
    H               -0.221787139706131     3.777597041847599     0.214951121950485
    H                0.595886860293869    -1.961751958152401    -2.863124878049515

}
e, wfn = energy('scf', return_wfn=True)
gdma(wfn)
dmavals = variable('DMA DISTRIBUTED MULTIPOLES')
charges = np.array(dmavals)
print(charges)
np.save('SSI-011LEU-069TYR-1-dimer.npy', np.array(charges))--------------------------------------------------------------------------

*** tstart() called on ds3
*** at Tue Apr 28 14:07:32 2020

   => Loading Basis Set <=

    Name: CC-PVDZ
    Role: ORBITAL
    Keyword: BASIS
    atoms 1-2, 9-15  entry C          line   138 file /theoryfs2/ds/metcalf/miniconda2/envs/tf2gpu/share/psi4/basis/cc-pvdz.gbs 
    atoms 3-8, 17-24 entry H          line    22 file /theoryfs2/ds/metcalf/miniconda2/envs/tf2gpu/share/psi4/basis/cc-pvdz.gbs 
    atoms 16         entry O          line   198 file /theoryfs2/ds/metcalf/miniconda2/envs/tf2gpu/share/psi4/basis/cc-pvdz.gbs 


         ---------------------------------------------------------
                                   SCF
               by Justin Turney, Rob Parrish, Andy Simmonett
                          and Daniel G. A. Smith
                              RHF Reference
                        1 Threads,    500 MiB Core
         ---------------------------------------------------------

  ==> Geometry <==

    Molecular point group: c1
    Full point group: C1

    Geometry (in Angstrom), charge = 0, multiplicity = 1:

       Center              X                  Y                   Z               Mass       
    ------------   -----------------  -----------------  -----------------  -----------------
         C            1.146212860294    -2.011402958152     2.756951121950    12.000000000000
         C            1.601212860294    -3.323402958152     3.380951121950    12.000000000000
         H            0.168212860294    -1.719402958152     3.136951121950     1.007825032230
         H            1.878212860294    -1.266402958152     3.045951121950     1.007825032230
         H            1.125212860294    -2.078402958152     1.671951121950     1.007825032230
         H            2.527212860294    -3.644402958152     2.901951121950     1.007825032230
         H            0.825339860294    -4.091373958152     3.245892121950     1.007825032230
         H            1.782902860294    -3.177044958152     4.455921121950     1.007825032230
         C           -0.413787139706    -1.670402958152    -2.538048878050    12.000000000000
         C           -0.619787139706    -0.528402958152    -0.289048878050    12.000000000000
         C           -0.434787139706    -0.429402958152    -1.673048878050    12.000000000000
         C           -0.581787139706     0.610597041848     0.522951121950    12.000000000000
         C           -0.218787139706     0.831597041848    -2.234048878050    12.000000000000
         C           -0.355787139706     1.861597041848    -0.051048878050    12.000000000000
         C           -0.179787139706     1.977597041848    -1.432048878050    12.000000000000
         O           -0.284787139706     2.972597041848     0.727951121950    15.994914619570
         H           -0.789787139706    -1.498402958152     0.160951121950     1.007825032230
         H           -0.716787139706     0.530597041848     1.590951121950     1.007825032230
         H           -1.027787139706    -1.488402958152    -3.419048878050     1.007825032230
         H           -0.855787139706    -2.494402958152    -1.978048878050     1.007825032230
         H           -0.074787139706     0.920597041848    -3.300048878050     1.007825032230
         H           -0.016787139706     2.943597041848    -1.886048878050     1.007825032230
         H           -0.221787139706     3.777597041848     0.214951121950     1.007825032230
         H            0.595886860294    -1.961751958152    -2.863124878050     1.007825032230

  Running in c1 symmetry.

  Rotational constants: A =      0.04582  B =      0.02038  C =      0.01468 [cm^-1]
  Rotational constants: A =   1373.69312  B =    610.93807  C =    440.02204 [MHz]
  Nuclear repulsion =  483.968645820177471

  Charge       = 0
  Multiplicity = 1
  Electrons    = 76
  Nalpha       = 38
  Nbeta        = 38

  ==> Algorithm <==

  SCF Algorithm Type is PK.
  DIIS enabled.
  MOM disabled.
  Fractional occupation disabled.
  Guess Type is SAD.
  Energy threshold   = 1.00e-06
  Density threshold  = 1.00e-10
  Integral threshold = 0.00e+00

  ==> Primary Basis <==

  Basis Set: CC-PVDZ
    Blend: CC-PVDZ
    Number of shells: 102
    Number of basis function: 210
    Number of Cartesian functions: 220
    Spherical Harmonics?: true
    Max angular momentum: 2

  ==> Pre-Iterations <==

   -------------------------------------------------------
    Irrep   Nso     Nmo     Nalpha   Nbeta   Ndocc  Nsocc
   -------------------------------------------------------
     A        210     210       0       0       0       0
   -------------------------------------------------------
    Total     210     210      38      38      38       0
   -------------------------------------------------------

  ==> Integral Setup <==

  Using integral reordering PK algorithm.
  Sizing the integral batches needed.
  Building batch lookup table.
   Calculation information:
      Number of atoms:                  24
      Number of AO shells:             102
      Number of primitives:            290
      Number of atomic orbitals:       220
      Number of basis functions:       210

      Integral cutoff                 1.00e-12
      Number of threads:                 1

	Batch   1 pq = [       0,    9405] index = [             0,44231715] size =     44231715
	Batch   2 pq = [    9405,   13301] index = [      44231715,88464951] size =     44233236
	Batch   3 pq = [   13301,   16290] index = [      88464951,132690195] size =     44225244
	Batch   4 pq = [   16290,   18810] index = [     132690195,176917455] size =     44227260
	Batch   5 pq = [   18810,   21030] index = [     176917455,221140965] size =     44223510
	Batch   6 pq = [   21030,   22155] index = [     221140965,245433090] size =     24292125
  Task number: 23
  Buffer size: 11059200
  Buffer per thread: 2
  We computed 10576696 shell quartets total.
  Whereas there are 13799631 unique shell quartets.

  ==> DiskJK: Disk-Based J/K Matrices <==

    J tasked:                  Yes
    K tasked:                  Yes
    wK tasked:                  No
    Memory [MiB]:              375
    Schwarz Cutoff:          1E-12

    OpenMP threads:              1

  Minimum eigenvalue in the overlap matrix is 3.3219395439E-04.
  Using Symmetric Orthogonalization.

  SCF Guess: Superposition of Atomic Densities via on-the-fly atomic UHF.

  ==> Iterations <==

                        Total Energy        Delta E     RMS |[F,P]|

   @RHF iter SAD:  -422.64632908914587   -4.22646e+02   0.00000e+00 
   @RHF iter   1:  -423.60190743574100   -9.55578e-01   2.97707e-03 DIIS
   @RHF iter   2:  -423.81815115210361   -2.16244e-01   1.25082e-03 DIIS
   @RHF iter   3:  -423.85272677129581   -3.45756e-02   2.83154e-04 DIIS
   @RHF iter   4:  -423.85558052171228   -2.85375e-03   1.16785e-04 DIIS
   @RHF iter   5:  -423.85593151109055   -3.50989e-04   2.07058e-05 DIIS
   @RHF iter   6:  -423.85594900453088   -1.74934e-05   6.40251e-06 DIIS
   @RHF iter   7:  -423.85595067702275   -1.67249e-06   2.13984e-06 DIIS
   @RHF iter   8:  -423.85595092782052   -2.50798e-07   8.32636e-07 DIIS
   @RHF iter   9:  -423.85595097611809   -4.82976e-08   3.61306e-07 DIIS
   @RHF iter  10:  -423.85595098687145   -1.07534e-08   1.61373e-07 DIIS
   @RHF iter  11:  -423.85595099033503   -3.46358e-09   6.60802e-08 DIIS
   @RHF iter  12:  -423.85595099083673   -5.01700e-10   3.00695e-08 DIIS
   @RHF iter  13:  -423.85595099091063   -7.38964e-11   8.13638e-09 DIIS
   @RHF iter  14:  -423.85595099091466   -4.03588e-12   2.12047e-09 DIIS
   @RHF iter  15:  -423.85595099091375    9.09495e-13   6.72619e-10 DIIS
   @RHF iter  16:  -423.85595099091330    4.54747e-13   1.97783e-10 DIIS
   @RHF iter  17:  -423.85595099091370   -3.97904e-13   6.93085e-11 DIIS
  Energy and wave function converged.


  ==> Post-Iterations <==

    Orbital Energies [Eh]
    ---------------------

    Doubly Occupied:                                                      

       1A    -20.581743     2A    -11.299910     3A    -11.239037  
       4A    -11.238779     5A    -11.233862     6A    -11.233520  
       7A    -11.230172     8A    -11.228091     9A    -11.216922  
      10A    -11.212602    11A     -1.401783    12A     -1.146794  
      13A     -1.035048    14A     -1.019126    15A     -1.014740  
      16A     -0.925211    17A     -0.843517    18A     -0.833582  
      19A     -0.801537    20A     -0.732676    21A     -0.666081  
      22A     -0.640981    23A     -0.607734    24A     -0.599458  
      25A     -0.597902    26A     -0.585332    27A     -0.585046  
      28A     -0.571003    29A     -0.564191    30A     -0.526336  
      31A     -0.498957    32A     -0.496049    33A     -0.487410  
      34A     -0.483319    35A     -0.479726    36A     -0.464155  
      37A     -0.336249    38A     -0.300123  

    Virtual:                                                              

      39A      0.128757    40A      0.154895    41A      0.176414  
      42A      0.181250    43A      0.195207    44A      0.209539  
      45A      0.223616    46A      0.242735    47A      0.253847  
      48A      0.262676    49A      0.265747    50A      0.277521  
      51A      0.281602    52A      0.293247    53A      0.306089  
      54A      0.318544    55A      0.367951    56A      0.373130  
      57A      0.398944    58A      0.431339    59A      0.454851  
      60A      0.486178    61A      0.494907    62A      0.508703  
      63A      0.599210    64A      0.600429    65A      0.611888  
      66A      0.614816    67A      0.635446    68A      0.649158  
      69A      0.662084    70A      0.684317    71A      0.687165  
      72A      0.697265    73A      0.701399    74A      0.713427  
      75A      0.730650    76A      0.740427    77A      0.767095  
      78A      0.771505    79A      0.774007    80A      0.789558  
      81A      0.798401    82A      0.827601    83A      0.840330  
      84A      0.850618    85A      0.877900    86A      0.885862  
      87A      0.888835    88A      0.892789    89A      0.896412  
      90A      0.897821    91A      0.913710    92A      0.917660  
      93A      0.922676    94A      0.927536    95A      0.935550  
      96A      0.944864    97A      0.952788    98A      0.964327  
      99A      0.989567   100A      1.011896   101A      1.027524  
     102A      1.065194   103A      1.123556   104A      1.127049  
     105A      1.134127   106A      1.141176   107A      1.146008  
     108A      1.171451   109A      1.209051   110A      1.232125  
     111A      1.243754   112A      1.246532   113A      1.279375  
     114A      1.288282   115A      1.294332   116A      1.306971  
     117A      1.315968   118A      1.358780   119A      1.359825  
     120A      1.386839   121A      1.474170   122A      1.486961  
     123A      1.494964   124A      1.508976   125A      1.526142  
     126A      1.557538   127A      1.590930   128A      1.620297  
     129A      1.626157   130A      1.680602   131A      1.684151  
     132A      1.695605   133A      1.698773   134A      1.729613  
     135A      1.743223   136A      1.779174   137A      1.799423  
     138A      1.803568   139A      1.859388   140A      1.864765  
     141A      1.871155   142A      1.888415   143A      1.893770  
     144A      1.904511   145A      1.910376   146A      1.917859  
     147A      1.926909   148A      1.938367   149A      1.943293  
     150A      1.945678   151A      1.957755   152A      1.964959  
     153A      1.970459   154A      1.972759   155A      1.991753  
     156A      2.010168   157A      2.030811   158A      2.048357  
     159A      2.058171   160A      2.064859   161A      2.068383  
     162A      2.103995   163A      2.122434   164A      2.141589  
     165A      2.154197   166A      2.175462   167A      2.202807  
     168A      2.218931   169A      2.254039   170A      2.272442  
     171A      2.296394   172A      2.301309   173A      2.332890  
     174A      2.342730   175A      2.365307   176A      2.405932  
     177A      2.458454   178A      2.462338   179A      2.465897  
     180A      2.481125   181A      2.504770   182A      2.524451  
     183A      2.539331   184A      2.570597   185A      2.588740  
     186A      2.605891   187A      2.639696   188A      2.747904  
     189A      2.763992   190A      2.771206   191A      2.790947  
     192A      2.800961   193A      2.809997   194A      2.839558  
     195A      2.843623   196A      2.860064   197A      2.893240  
     198A      2.951033   199A      2.958675   200A      2.967671  
     201A      2.999943   202A      3.080754   203A      3.107229  
     204A      3.253571   205A      3.273217   206A      3.354907  
     207A      3.574282   208A      3.666957   209A      3.970627  
     210A      4.195054  

    Final Occupation by Irrep:
              A 
    DOCC [    38 ]

  @RHF Final Energy:  -423.85595099091370

   => Energetics <=

    Nuclear Repulsion Energy =            483.9686458201774713
    One-Electron Energy =               -1533.7317872635765070
    Two-Electron Energy =                 625.9071904524853380
    Total Energy =                       -423.8559509909136978

Computation Completed


Properties will be evaluated at   0.000000,   0.000000,   0.000000 [a0]

Properties computed using the SCF density matrix

  Nuclear Dipole Moment: [e a0]
     X:     4.8730      Y:   -14.2799      Z:     6.5462

  Electronic Dipole Moment: [e a0]
     X:    -4.8214      Y:    14.4803      Z:    -7.0950

  Dipole Moment: [e a0]
     X:     0.0515      Y:     0.2004      Z:    -0.5488     Total:     0.5865

  Dipole Moment: [D]
     X:     0.1310      Y:     0.5094      Z:    -1.3949     Total:     1.4907


*** tstop() called on ds3 at Tue Apr 28 14:09:44 2020
Module time:
	user time   =      81.79 seconds =       1.36 minutes
	system time =      39.34 seconds =       0.66 minutes
	total time  =        132 seconds =       2.20 minutes
Total time:
	user time   =      81.79 seconds =       1.36 minutes
	system time =      39.34 seconds =       0.66 minutes
	total time  =        132 seconds =       2.20 minutes
                                     G D M A

                                 by Anthony Stone

                           version 2.2.06, 22 June 2011

               Distributed Multipoles from Gaussian wavefunctions


Starting at 14:9:44 on 28 Apr 2020  


Using SCF density matrix from file ./SSI/SSI-011LEU-069TYR-1-dimer.test.26937.fchk


                         Distributed Multipole Analysis

Standard DMA

Positions and radii in angstrom
Multipole moments in atomic units, ea_0^k for rank k

C          x =  1.146213  y = -2.011403  z =  2.756951 angstrom
           Maximum rank =  0   Radius =  0.650 angstrom
                   Q00  =  -0.231027

C          x =  1.601213  y = -3.323403  z =  3.380951 angstrom
           Maximum rank =  0   Radius =  0.650 angstrom
                   Q00  =  -0.236334

H          x =  0.168213  y = -1.719403  z =  3.136951 angstrom
           Maximum rank =  0   Radius =  0.325 angstrom
                   Q00  =   0.075152

H          x =  1.878213  y = -1.266403  z =  3.045951 angstrom
           Maximum rank =  0   Radius =  0.325 angstrom
                   Q00  =   0.078989

H          x =  1.125213  y = -2.078403  z =  1.671951 angstrom
           Maximum rank =  0   Radius =  0.325 angstrom
                   Q00  =   0.082342

H          x =  2.527213  y = -3.644403  z =  2.901951 angstrom
           Maximum rank =  0   Radius =  0.325 angstrom
                   Q00  =   0.079782

H          x =  0.825340  y = -4.091374  z =  3.245892 angstrom
           Maximum rank =  0   Radius =  0.325 angstrom
                   Q00  =   0.074338

H          x =  1.782903  y = -3.177045  z =  4.455921 angstrom
           Maximum rank =  0   Radius =  0.325 angstrom
                   Q00  =   0.077409

C          x = -0.413787  y = -1.670403  z = -2.538049 angstrom
           Maximum rank =  0   Radius =  0.650 angstrom
                   Q00  =  -0.193608

C          x = -0.619787  y = -0.528403  z = -0.289049 angstrom
           Maximum rank =  0   Radius =  0.650 angstrom
                   Q00  =  -0.018494

C          x = -0.434787  y = -0.429403  z = -1.673049 angstrom
           Maximum rank =  0   Radius =  0.650 angstrom
                   Q00  =  -0.139990

C          x = -0.581787  y =  0.610597  z =  0.522951 angstrom
           Maximum rank =  0   Radius =  0.650 angstrom
                   Q00  =  -0.123272

C          x = -0.218787  y =  0.831597  z = -2.234049 angstrom
           Maximum rank =  0   Radius =  0.650 angstrom
                   Q00  =   0.022901

C          x = -0.355787  y =  1.861597  z = -0.051049 angstrom
           Maximum rank =  0   Radius =  0.650 angstrom
                   Q00  =   0.317832

C          x = -0.179787  y =  1.977597  z = -1.432049 angstrom
           Maximum rank =  0   Radius =  0.650 angstrom
                   Q00  =  -0.180543

O          x = -0.284787  y =  2.972597  z =  0.727951 angstrom
           Maximum rank =  0   Radius =  0.650 angstrom
                   Q00  =  -0.670872

H          x = -0.789787  y = -1.498403  z =  0.160951 angstrom
           Maximum rank =  0   Radius =  0.325 angstrom
                   Q00  =   0.066908

H          x = -0.716787  y =  0.530597  z =  1.590951 angstrom
           Maximum rank =  0   Radius =  0.325 angstrom
                   Q00  =   0.082090

H          x = -1.027787  y = -1.488403  z = -3.419049 angstrom
           Maximum rank =  0   Radius =  0.325 angstrom
                   Q00  =   0.095850

H          x = -0.855787  y = -2.494403  z = -1.978049 angstrom
           Maximum rank =  0   Radius =  0.325 angstrom
                   Q00  =   0.095956

H          x = -0.074787  y =  0.920597  z = -3.300049 angstrom
           Maximum rank =  0   Radius =  0.325 angstrom
                   Q00  =   0.067621

H          x = -0.016787  y =  2.943597  z = -1.886049 angstrom
           Maximum rank =  0   Radius =  0.325 angstrom
                   Q00  =   0.072305

H          x = -0.221787  y =  3.777597  z =  0.214951 angstrom
           Maximum rank =  0   Radius =  0.325 angstrom
                   Q00  =   0.404935

H          x =  0.595887  y = -1.961752  z = -2.863125 angstrom
           Maximum rank =  0   Radius =  0.325 angstrom
                   Q00  =   0.099729

Total multipoles referred to origin at
           x =   0.000000,  y =    0.000000,  z =    0.000000 angstrom
                   Q00  =  -0.000000

Finished at 14:9:44 on 28 Apr 2020  

  DMA results are available in the Python driver through the
	  variable('DMA DISTRIBUTED MULTIPOLES')
  and
	  variable('DMA TOTAL MULTIPOLES')
  commands.


    Psi4 stopped on: Tuesday, 28 April 2020 02:09PM
    Psi4 wall time for execution: 0:02:11.86

*** Psi4 exiting successfully. Buy a developer a beer!
