
    -----------------------------------------------------------------------
          Psi4: An Open-Source Ab Initio Electronic Structure Package
                               Psi4 1.3.2 release

                         Git: Rev {HEAD} ecbda83 


    R. M. Parrish, L. A. Burns, D. G. A. Smith, A. C. Simmonett,
    A. E. DePrince III, E. G. Hohenstein, U. Bozkaya, A. Yu. Sokolov,
    R. Di Remigio, R. M. Richard, J. F. Gonthier, A. M. James,
    H. R. McAlexander, A. Kumar, M. Saitow, X. Wang, B. P. Pritchard,
    P. Verma, H. F. Schaefer III, K. Patkowski, R. A. King, E. F. Valeev,
    F. A. Evangelista, J. M. Turney, T. D. Crawford, and C. D. Sherrill,
    J. Chem. Theory Comput. 13(7) pp 3185--3197 (2017).
    (doi: 10.1021/acs.jctc.7b00174)


                         Additional Contributions by
    P. Kraus, H. Kruse, M. H. Lechner, M. C. Schieber, R. A. Shaw,
    A. Alenaizan, R. Galvelis, Z. L. Glick, S. Lehtola, and J. P. Misiewicz

    -----------------------------------------------------------------------


    Psi4 started on: Monday, 27 April 2020 11:23PM

    Process ID: 2617
    Host:       ds3
    PSIDATADIR: /theoryfs2/ds/metcalf/miniconda2/envs/tf2gpu/share/psi4
    Memory:     500.0 MiB
    Threads:    1
    
  ==> Input File <==

--------------------------------------------------------------------------
import numpy as np
set {scf_type pk
basis cc-pvdz
d_convergence 10
gdma_switch   0
gdma_limit    0
gdma_origin   [ 0.0,  0.0,  0.0 ]
}
molecule test {
    units Angstrom
    0 1
    --
    0 1
    C               -0.738533818159591    -0.762111656400236     1.111700970937874
    C               -1.473533818159591    -1.852111656400236     1.883700970937874
    H                0.196466181840409    -1.152111656400236     0.706700970937874
    H               -1.370533818159591    -0.430111656400236     0.289700970937874
    H               -0.515533818159591     0.087888343599764     1.755700970937874
    H               -2.460533818159591    -1.517111656400236     2.172700970937874
    H               -0.920309818159591    -2.076275056400236     2.807656970937873
    H               -1.579931818159591    -2.746722656400236     1.252550970937874
    C                0.439466181840409     1.502888343599764    -1.208299029062126
    C                1.775466181840409     1.109888343599764    -1.788299029062127
    H                0.098466181840409     2.424888343599764    -1.675299029062126
    H               -0.285533818159591     0.714888343599764    -1.407299029062126
    H                0.525466181840409     1.645888343599764    -0.131299029062126
    H                2.149466181840409     0.243888343599764    -1.256299029062126
    H                2.444966181840409     1.971193343599764    -1.647160729062126
    H                1.683436181840409     0.850922343599764    -2.853413029062126

}
e, wfn = energy('scf', return_wfn=True)
gdma(wfn)
dmavals = variable('DMA DISTRIBUTED MULTIPOLES')
charges = np.array(dmavals)
print(charges)
np.save('SSI-047LEU-055LEU-1-dimer.npy', np.array(charges))--------------------------------------------------------------------------

*** tstart() called on ds3
*** at Mon Apr 27 23:23:42 2020

   => Loading Basis Set <=

    Name: CC-PVDZ
    Role: ORBITAL
    Keyword: BASIS
    atoms 1-2, 9-10  entry C          line   138 file /theoryfs2/ds/metcalf/miniconda2/envs/tf2gpu/share/psi4/basis/cc-pvdz.gbs 
    atoms 3-8, 11-16 entry H          line    22 file /theoryfs2/ds/metcalf/miniconda2/envs/tf2gpu/share/psi4/basis/cc-pvdz.gbs 


         ---------------------------------------------------------
                                   SCF
               by Justin Turney, Rob Parrish, Andy Simmonett
                          and Daniel G. A. Smith
                              RHF Reference
                        1 Threads,    500 MiB Core
         ---------------------------------------------------------

  ==> Geometry <==

    Molecular point group: c1
    Full point group: C1

    Geometry (in Angstrom), charge = 0, multiplicity = 1:

       Center              X                  Y                   Z               Mass       
    ------------   -----------------  -----------------  -----------------  -----------------
         C           -0.738533818160    -0.762111656400     1.111700970938    12.000000000000
         C           -1.473533818160    -1.852111656400     1.883700970938    12.000000000000
         H            0.196466181840    -1.152111656400     0.706700970938     1.007825032230
         H           -1.370533818160    -0.430111656400     0.289700970938     1.007825032230
         H           -0.515533818160     0.087888343600     1.755700970938     1.007825032230
         H           -2.460533818160    -1.517111656400     2.172700970938     1.007825032230
         H           -0.920309818160    -2.076275056400     2.807656970938     1.007825032230
         H           -1.579931818160    -2.746722656400     1.252550970938     1.007825032230
         C            0.439466181840     1.502888343600    -1.208299029062    12.000000000000
         C            1.775466181840     1.109888343600    -1.788299029062    12.000000000000
         H            0.098466181840     2.424888343600    -1.675299029062     1.007825032230
         H           -0.285533818160     0.714888343600    -1.407299029062     1.007825032230
         H            0.525466181840     1.645888343600    -0.131299029062     1.007825032230
         H            2.149466181840     0.243888343600    -1.256299029062     1.007825032230
         H            2.444966181840     1.971193343600    -1.647160729062     1.007825032230
         H            1.683436181840     0.850922343600    -2.853413029062     1.007825032230

  Running in c1 symmetry.

  Rotational constants: A =      0.64186  B =      0.04852  C =      0.04687 [cm^-1]
  Rotational constants: A =  19242.41688  B =   1454.60390  C =   1405.16910 [MHz]
  Nuclear repulsion =  123.577917251742520

  Charge       = 0
  Multiplicity = 1
  Electrons    = 36
  Nalpha       = 18
  Nbeta        = 18

  ==> Algorithm <==

  SCF Algorithm Type is PK.
  DIIS enabled.
  MOM disabled.
  Fractional occupation disabled.
  Guess Type is SAD.
  Energy threshold   = 1.00e-06
  Density threshold  = 1.00e-10
  Integral threshold = 0.00e+00

  ==> Primary Basis <==

  Basis Set: CC-PVDZ
    Blend: CC-PVDZ
    Number of shells: 60
    Number of basis function: 116
    Number of Cartesian functions: 120
    Spherical Harmonics?: true
    Max angular momentum: 2

  ==> Pre-Iterations <==

   -------------------------------------------------------
    Irrep   Nso     Nmo     Nalpha   Nbeta   Ndocc  Nsocc
   -------------------------------------------------------
     A        116     116       0       0       0       0
   -------------------------------------------------------
    Total     116     116      18      18      18       0
   -------------------------------------------------------

  ==> Integral Setup <==

  Using integral reordering PK algorithm.
  Sizing the integral batches needed.
  Building batch lookup table.
   Calculation information:
      Number of atoms:                  16
      Number of AO shells:              60
      Number of primitives:            148
      Number of atomic orbitals:       120
      Number of basis functions:       116

      Integral cutoff                 1.00e-12
      Number of threads:                 1

	Batch   1 pq = [       0,    6786] index = [             0,23028291] size =     23028291
  Task number: 3
  Buffer size: 11059200
  Buffer per thread: 2
  We computed 1444243 shell quartets total.
  Whereas there are 1675365 unique shell quartets.

  ==> DiskJK: Disk-Based J/K Matrices <==

    J tasked:                  Yes
    K tasked:                  Yes
    wK tasked:                  No
    Memory [MiB]:              375
    Schwarz Cutoff:          1E-12

    OpenMP threads:              1

  Minimum eigenvalue in the overlap matrix is 6.3375197637E-03.
  Using Symmetric Orthogonalization.

  SCF Guess: Superposition of Atomic Densities via on-the-fly atomic UHF.

  ==> Iterations <==

                        Total Energy        Delta E     RMS |[F,P]|

   @RHF iter SAD:  -157.41742091853027   -1.57417e+02   0.00000e+00 
   @RHF iter   1:  -158.30167882440637   -8.84258e-01   4.26409e-03 DIIS
   @RHF iter   2:  -158.43797484745301   -1.36296e-01   1.81565e-03 DIIS
   @RHF iter   3:  -158.46186556984833   -2.38907e-02   3.53097e-04 DIIS
   @RHF iter   4:  -158.46372595608338   -1.86039e-03   3.90179e-05 DIIS
   @RHF iter   5:  -158.46374984522248   -2.38891e-05   6.73939e-06 DIIS
   @RHF iter   6:  -158.46375051239045   -6.67168e-07   1.12086e-06 DIIS
   @RHF iter   7:  -158.46375052520119   -1.28107e-08   3.25886e-07 DIIS
   @RHF iter   8:  -158.46375052617401   -9.72818e-10   4.60417e-08 DIIS
   @RHF iter   9:  -158.46375052620749   -3.34808e-11   1.08300e-08 DIIS
   @RHF iter  10:  -158.46375052620903   -1.53477e-12   2.88528e-09 DIIS
   @RHF iter  11:  -158.46375052620951   -4.83169e-13   8.73944e-10 DIIS
   @RHF iter  12:  -158.46375052620925    2.55795e-13   1.89298e-10 DIIS
   @RHF iter  13:  -158.46375052620891    3.41061e-13   2.56718e-11 DIIS
  Energy and wave function converged.


  ==> Post-Iterations <==

    Orbital Energies [Eh]
    ---------------------

    Doubly Occupied:                                                      

       1A    -11.217561     2A    -11.216004     3A    -11.215657  
       4A    -11.211933     5A     -1.023941     6A     -1.018783  
       7A     -0.839571     8A     -0.829556     9A     -0.605460  
      10A     -0.600602    11A     -0.597839    12A     -0.596834  
      13A     -0.506002    14A     -0.498145    15A     -0.490862  
      16A     -0.486385    17A     -0.480805    18A     -0.474280  

    Virtual:                                                              

      19A      0.174348    20A      0.195042    21A      0.226359  
      22A      0.231133    23A      0.238163    24A      0.258802  
      25A      0.267338    26A      0.276449    27A      0.280293  
      28A      0.307530    29A      0.327454    30A      0.335806  
      31A      0.398433    32A      0.401324    33A      0.570378  
      34A      0.590929    35A      0.598437    36A      0.604790  
      37A      0.610846    38A      0.632038    39A      0.679712  
      40A      0.689415    41A      0.704922    42A      0.783412  
      43A      0.854601    44A      0.870598    45A      0.887838  
      46A      0.891041    47A      0.895327    48A      0.899628  
      49A      0.906487    50A      0.908624    51A      0.918233  
      52A      0.939982    53A      0.943593    54A      0.962240  
      55A      0.981104    56A      0.995813    57A      1.125079  
      58A      1.126862    59A      1.134295    60A      1.164732  
      61A      1.224136    62A      1.273624    63A      1.474639  
      64A      1.477205    65A      1.494558    66A      1.509162  
      67A      1.584451    68A      1.589365    69A      1.675174  
      70A      1.681647    71A      1.691683    72A      1.695493  
      73A      1.846562    74A      1.865187    75A      1.874746  
      76A      1.888426    77A      1.919980    78A      1.924047  
      79A      1.940262    80A      1.943634    81A      1.945273  
      82A      1.949823    83A      1.957651    84A      1.966646  
      85A      1.974321    86A      1.989408    87A      1.992946  
      88A      2.071266    89A      2.101774    90A      2.107491  
      91A      2.123415    92A      2.141227    93A      2.291953  
      94A      2.300628    95A      2.313066    96A      2.359940  
      97A      2.448685    98A      2.460384    99A      2.473498  
     100A      2.488709   101A      2.566421   102A      2.570322  
     103A      2.579122   104A      2.601372   105A      2.766759  
     106A      2.770329   107A      2.788922   108A      2.800564  
     109A      2.842041   110A      2.850978   111A      2.857201  
     112A      2.870386   113A      2.946148   114A      2.963521  
     115A      2.974283   116A      2.991900  

    Final Occupation by Irrep:
              A 
    DOCC [    18 ]

  @RHF Final Energy:  -158.46375052620891

   => Energetics <=

    Nuclear Repulsion Energy =            123.5779172517425195
    One-Electron Energy =                -456.2628962706588140
    Two-Electron Energy =                 174.2212284927073824
    Total Energy =                       -158.4637505262089121

Computation Completed


Properties will be evaluated at   0.000000,   0.000000,   0.000000 [a0]

Properties computed using the SCF density matrix

  Nuclear Dipole Moment: [e a0]
     X:    -0.0320      Y:     0.0161      Z:     0.0134

  Electronic Dipole Moment: [e a0]
     X:     0.0088      Y:    -0.0116      Z:    -0.0041

  Dipole Moment: [e a0]
     X:    -0.0232      Y:     0.0045      Z:     0.0093     Total:     0.0254

  Dipole Moment: [D]
     X:    -0.0590      Y:     0.0115      Z:     0.0235     Total:     0.0645


*** tstop() called on ds3 at Mon Apr 27 23:23:58 2020
Module time:
	user time   =      12.51 seconds =       0.21 minutes
	system time =       4.12 seconds =       0.07 minutes
	total time  =         16 seconds =       0.27 minutes
Total time:
	user time   =      12.51 seconds =       0.21 minutes
	system time =       4.12 seconds =       0.07 minutes
	total time  =         16 seconds =       0.27 minutes
                                     G D M A

                                 by Anthony Stone

                           version 2.2.06, 22 June 2011

               Distributed Multipoles from Gaussian wavefunctions


Starting at 23:23:58 on 27 Apr 2020 


Using SCF density matrix from file ./SSI/SSI-047LEU-055LEU-1-dimer.test.2617.fchk


                         Distributed Multipole Analysis

Standard DMA

Positions and radii in angstrom
Multipole moments in atomic units, ea_0^k for rank k

C          x = -0.738534  y = -0.762112  z =  1.111701 angstrom
           Maximum rank =  0   Radius =  0.650 angstrom
                   Q00  =  -0.226891

C          x = -1.473534  y = -1.852112  z =  1.883701 angstrom
           Maximum rank =  0   Radius =  0.650 angstrom
                   Q00  =  -0.243192

H          x =  0.196466  y = -1.152112  z =  0.706701 angstrom
           Maximum rank =  0   Radius =  0.325 angstrom
                   Q00  =   0.077251

H          x = -1.370534  y = -0.430112  z =  0.289701 angstrom
           Maximum rank =  0   Radius =  0.325 angstrom
                   Q00  =   0.077053

H          x = -0.515534  y =  0.087888  z =  1.755701 angstrom
           Maximum rank =  0   Radius =  0.325 angstrom
                   Q00  =   0.079572

H          x = -2.460534  y = -1.517112  z =  2.172701 angstrom
           Maximum rank =  0   Radius =  0.325 angstrom
                   Q00  =   0.081054

H          x = -0.920310  y = -2.076275  z =  2.807657 angstrom
           Maximum rank =  0   Radius =  0.325 angstrom
                   Q00  =   0.076590

H          x = -1.579932  y = -2.746723  z =  1.252551 angstrom
           Maximum rank =  0   Radius =  0.325 angstrom
                   Q00  =   0.079017

C          x =  0.439466  y =  1.502888  z = -1.208299 angstrom
           Maximum rank =  0   Radius =  0.650 angstrom
                   Q00  =  -0.227833

C          x =  1.775466  y =  1.109888  z = -1.788299 angstrom
           Maximum rank =  0   Radius =  0.650 angstrom
                   Q00  =  -0.227757

H          x =  0.098466  y =  2.424888  z = -1.675299 angstrom
           Maximum rank =  0   Radius =  0.325 angstrom
                   Q00  =   0.074414

H          x = -0.285534  y =  0.714888  z = -1.407299 angstrom
           Maximum rank =  0   Radius =  0.325 angstrom
                   Q00  =   0.074735

H          x =  0.525466  y =  1.645888  z = -0.131299 angstrom
           Maximum rank =  0   Radius =  0.325 angstrom
                   Q00  =   0.078946

H          x =  2.149466  y =  0.243888  z = -1.256299 angstrom
           Maximum rank =  0   Radius =  0.325 angstrom
                   Q00  =   0.077403

H          x =  2.444966  y =  1.971193  z = -1.647161 angstrom
           Maximum rank =  0   Radius =  0.325 angstrom
                   Q00  =   0.072592

H          x =  1.683436  y =  0.850922  z = -2.853413 angstrom
           Maximum rank =  0   Radius =  0.325 angstrom
                   Q00  =   0.077046

Total multipoles referred to origin at
           x =   0.000000,  y =    0.000000,  z =    0.000000 angstrom
                   Q00  =  -0.000000

Finished at 23:23:58 on 27 Apr 2020 

  DMA results are available in the Python driver through the
	  variable('DMA DISTRIBUTED MULTIPOLES')
  and
	  variable('DMA TOTAL MULTIPOLES')
  commands.


    Psi4 stopped on: Monday, 27 April 2020 11:23PM
    Psi4 wall time for execution: 0:00:16.60

*** Psi4 exiting successfully. Buy a developer a beer!
