
    -----------------------------------------------------------------------
          Psi4: An Open-Source Ab Initio Electronic Structure Package
                               Psi4 1.3.2 release

                         Git: Rev {HEAD} ecbda83 


    R. M. Parrish, L. A. Burns, D. G. A. Smith, A. C. Simmonett,
    A. E. DePrince III, E. G. Hohenstein, U. Bozkaya, A. Yu. Sokolov,
    R. Di Remigio, R. M. Richard, J. F. Gonthier, A. M. James,
    H. R. McAlexander, A. Kumar, M. Saitow, X. Wang, B. P. Pritchard,
    P. Verma, H. F. Schaefer III, K. Patkowski, R. A. King, E. F. Valeev,
    F. A. Evangelista, J. M. Turney, T. D. Crawford, and C. D. Sherrill,
    J. Chem. Theory Comput. 13(7) pp 3185--3197 (2017).
    (doi: 10.1021/acs.jctc.7b00174)


                         Additional Contributions by
    P. Kraus, H. Kruse, M. H. Lechner, M. C. Schieber, R. A. Shaw,
    A. Alenaizan, R. Galvelis, Z. L. Glick, S. Lehtola, and J. P. Misiewicz

    -----------------------------------------------------------------------


    Psi4 started on: Monday, 27 April 2020 05:58PM

    Process ID: 18507
    Host:       ds3
    PSIDATADIR: /theoryfs2/ds/metcalf/miniconda2/envs/tf2gpu/share/psi4
    Memory:     500.0 MiB
    Threads:    1
    
  ==> Input File <==

--------------------------------------------------------------------------
import numpy as np
set {scf_type pk
basis cc-pvdz
d_convergence 10
gdma_switch   0
gdma_limit    0
gdma_origin   [ 0.0,  0.0,  0.0 ]
}
molecule test {
    units Angstrom
    0 1
    --
    0 1
    C               -0.100371445692690     0.740237590669325     1.061179569368948
    C               -1.350371445692690     0.280237590669325     1.826179569368947
    C               -0.384371445692690     1.372237590669325    -0.270820430631053
    C                0.009628554307310     1.002237590669325    -1.517820430631053
    C               -1.196371445692690     2.834237590669325    -1.698820430631052
    N               -1.128371445692690     2.523237590669325    -0.410820430631053
    N               -0.514371445692690     1.931237590669325    -2.391820430631053
    H                0.445628554307310     1.447237590669325     1.682179569368947
    H                0.565628554307310    -0.093762409330675     0.889179569368947
    H               -1.013371445692689    -0.511762409330675     2.498179569368947
    H                0.610628554307310     0.133237590669325    -1.762820430631053
    H               -1.746371445692690     3.665237590669325    -2.114820430631053
    H               -0.484371445692690     1.907237590669325    -3.400820430631053
    H               -2.127591445692689    -0.103852409330675     1.149129569368947
    H               -1.750941445692690     1.071267590669325     2.477189569368947
    C                1.455628554307310    -2.716762409330675     1.018179569368947
    C                1.254628554307310    -3.557762409330675     2.279179569368947
    C                1.702628554307310    -3.539762409330675    -0.231820430631053
    H                0.541628554307310    -2.156762409330675     0.844179569368947
    H                2.286628554307311    -2.025762409330675     1.157179569368947
    H                2.124628554307310    -4.203762409330674     2.420179569368947
    H                2.512628554307310    -4.238762409330675    -0.029820430631053
    H                0.799628554307310    -4.100762409330675    -0.468820430631053
    H                0.336906554307310    -4.157753409330675     2.190879569368947
    H                1.179413554307310    -2.903248409330675     3.160059569368947
    H                1.981406554307310    -2.932902409330675    -1.105890430631053

}
e, wfn = energy('scf', return_wfn=True)
gdma(wfn)
dmavals = variable('DMA DISTRIBUTED MULTIPOLES')
charges = np.array(dmavals)
print(charges)
np.save('SSI-193HIE-248MET-1-dimer.npy', np.array(charges))--------------------------------------------------------------------------

*** tstart() called on ds3
*** at Mon Apr 27 17:58:13 2020

   => Loading Basis Set <=

    Name: CC-PVDZ
    Role: ORBITAL
    Keyword: BASIS
    atoms 1-5, 16-18  entry C          line   138 file /theoryfs2/ds/metcalf/miniconda2/envs/tf2gpu/share/psi4/basis/cc-pvdz.gbs 
    atoms 6-7         entry N          line   168 file /theoryfs2/ds/metcalf/miniconda2/envs/tf2gpu/share/psi4/basis/cc-pvdz.gbs 
    atoms 8-15, 19-26 entry H          line    22 file /theoryfs2/ds/metcalf/miniconda2/envs/tf2gpu/share/psi4/basis/cc-pvdz.gbs 


         ---------------------------------------------------------
                                   SCF
               by Justin Turney, Rob Parrish, Andy Simmonett
                          and Daniel G. A. Smith
                              RHF Reference
                        1 Threads,    500 MiB Core
         ---------------------------------------------------------

  ==> Geometry <==

    Molecular point group: c1
    Full point group: C1

    Geometry (in Angstrom), charge = 0, multiplicity = 1:

       Center              X                  Y                   Z               Mass       
    ------------   -----------------  -----------------  -----------------  -----------------
         C           -0.100371445693     0.740237590669     1.061179569369    12.000000000000
         C           -1.350371445693     0.280237590669     1.826179569369    12.000000000000
         C           -0.384371445693     1.372237590669    -0.270820430631    12.000000000000
         C            0.009628554307     1.002237590669    -1.517820430631    12.000000000000
         C           -1.196371445693     2.834237590669    -1.698820430631    12.000000000000
         N           -1.128371445693     2.523237590669    -0.410820430631    14.003074004430
         N           -0.514371445693     1.931237590669    -2.391820430631    14.003074004430
         H            0.445628554307     1.447237590669     1.682179569369     1.007825032230
         H            0.565628554307    -0.093762409331     0.889179569369     1.007825032230
         H           -1.013371445693    -0.511762409331     2.498179569369     1.007825032230
         H            0.610628554307     0.133237590669    -1.762820430631     1.007825032230
         H           -1.746371445693     3.665237590669    -2.114820430631     1.007825032230
         H           -0.484371445693     1.907237590669    -3.400820430631     1.007825032230
         H           -2.127591445693    -0.103852409331     1.149129569369     1.007825032230
         H           -1.750941445693     1.071267590669     2.477189569369     1.007825032230
         C            1.455628554307    -2.716762409331     1.018179569369    12.000000000000
         C            1.254628554307    -3.557762409331     2.279179569369    12.000000000000
         C            1.702628554307    -3.539762409331    -0.231820430631    12.000000000000
         H            0.541628554307    -2.156762409331     0.844179569369     1.007825032230
         H            2.286628554307    -2.025762409331     1.157179569369     1.007825032230
         H            2.124628554307    -4.203762409331     2.420179569369     1.007825032230
         H            2.512628554307    -4.238762409331    -0.029820430631     1.007825032230
         H            0.799628554307    -4.100762409331    -0.468820430631     1.007825032230
         H            0.336906554307    -4.157753409331     2.190879569369     1.007825032230
         H            1.179413554307    -2.903248409331     3.160059569369     1.007825032230
         H            1.981406554307    -2.932902409331    -1.105890430631     1.007825032230

  Running in c1 symmetry.

  Rotational constants: A =      0.07016  B =      0.01559  C =      0.01317 [cm^-1]
  Rotational constants: A =   2103.19617  B =    467.44412  C =    394.93201 [MHz]
  Nuclear repulsion =  504.141319077825017

  Charge       = 0
  Multiplicity = 1
  Electrons    = 78
  Nalpha       = 39
  Nbeta        = 39

  ==> Algorithm <==

  SCF Algorithm Type is PK.
  DIIS enabled.
  MOM disabled.
  Fractional occupation disabled.
  Guess Type is SAD.
  Energy threshold   = 1.00e-06
  Density threshold  = 1.00e-10
  Integral threshold = 0.00e+00

  ==> Primary Basis <==

  Basis Set: CC-PVDZ
    Blend: CC-PVDZ
    Number of shells: 108
    Number of basis function: 220
    Number of Cartesian functions: 230
    Spherical Harmonics?: true
    Max angular momentum: 2

  ==> Pre-Iterations <==

   -------------------------------------------------------
    Irrep   Nso     Nmo     Nalpha   Nbeta   Ndocc  Nsocc
   -------------------------------------------------------
     A        220     220       0       0       0       0
   -------------------------------------------------------
    Total     220     220      39      39      39       0
   -------------------------------------------------------

  ==> Integral Setup <==

  Using integral reordering PK algorithm.
  Sizing the integral batches needed.
  Building batch lookup table.
   Calculation information:
      Number of atoms:                  26
      Number of AO shells:             108
      Number of primitives:            300
      Number of atomic orbitals:       230
      Number of basis functions:       220

      Integral cutoff                 1.00e-12
      Number of threads:                 1

	Batch   1 pq = [       0,    9405] index = [             0,44231715] size =     44231715
	Batch   2 pq = [    9405,   13301] index = [      44231715,88464951] size =     44233236
	Batch   3 pq = [   13301,   16290] index = [      88464951,132690195] size =     44225244
	Batch   4 pq = [   16290,   18810] index = [     132690195,176917455] size =     44227260
	Batch   5 pq = [   18810,   21030] index = [     176917455,221140965] size =     44223510
	Batch   6 pq = [   21030,   23037] index = [     221140965,265363203] size =     44222238
	Batch   7 pq = [   23037,   24310] index = [     265363203,295500205] size =     30137002
  Task number: 27
  Buffer size: 11059200
  Buffer per thread: 2
  We computed 13933006 shell quartets total.
  Whereas there are 17325441 unique shell quartets.

  ==> DiskJK: Disk-Based J/K Matrices <==

    J tasked:                  Yes
    K tasked:                  Yes
    wK tasked:                  No
    Memory [MiB]:              375
    Schwarz Cutoff:          1E-12

    OpenMP threads:              1

  Minimum eigenvalue in the overlap matrix is 1.1394871680E-03.
  Using Symmetric Orthogonalization.

  SCF Guess: Superposition of Atomic Densities via on-the-fly atomic UHF.

  ==> Iterations <==

                        Total Energy        Delta E     RMS |[F,P]|

   @RHF iter SAD:  -420.25255033860611   -4.20253e+02   0.00000e+00 
   @RHF iter   1:  -420.89435519202630   -6.41805e-01   2.95807e-03 DIIS
   @RHF iter   2:  -421.11622123469715   -2.21866e-01   1.50042e-03 DIIS
   @RHF iter   3:  -421.16870587349257   -5.24846e-02   3.82515e-04 DIIS
   @RHF iter   4:  -421.17316855231155   -4.46268e-03   1.64344e-04 DIIS
   @RHF iter   5:  -421.17389663280665   -7.28080e-04   2.26158e-05 DIIS
   @RHF iter   6:  -421.17392106115625   -2.44283e-05   8.98869e-06 DIIS
   @RHF iter   7:  -421.17392431132282   -3.25017e-06   3.01578e-06 DIIS
   @RHF iter   8:  -421.17392489388232   -5.82559e-07   1.23192e-06 DIIS
   @RHF iter   9:  -421.17392502437554   -1.30493e-07   4.31887e-07 DIIS
   @RHF iter  10:  -421.17392503956421   -1.51887e-08   1.39937e-07 DIIS
   @RHF iter  11:  -421.17392504156396   -1.99975e-09   5.84497e-08 DIIS
   @RHF iter  12:  -421.17392504180395   -2.39993e-10   2.40137e-08 DIIS
   @RHF iter  13:  -421.17392504184266   -3.87104e-11   8.00340e-09 DIIS
   @RHF iter  14:  -421.17392504185057   -7.90124e-12   2.54785e-09 DIIS
   @RHF iter  15:  -421.17392504184920    1.36424e-12   9.63555e-10 DIIS
   @RHF iter  16:  -421.17392504184943   -2.27374e-13   3.85759e-10 DIIS
   @RHF iter  17:  -421.17392504184829    1.13687e-12   1.38967e-10 DIIS
   @RHF iter  18:  -421.17392504185108   -2.78533e-12   3.88483e-11 DIIS
  Energy and wave function converged.


  ==> Post-Iterations <==

    Orbital Energies [Eh]
    ---------------------

    Doubly Occupied:                                                      

       1A    -15.618809     2A    -15.524759     3A    -11.290425  
       4A    -11.249461     5A    -11.236626     6A    -11.220256  
       7A    -11.219774     8A    -11.219666     9A    -11.217686  
      10A    -11.212803    11A     -1.340382    12A     -1.152649  
      13A     -1.058592    14A     -1.046393    15A     -0.983407  
      16A     -0.927028    17A     -0.857174    18A     -0.816451  
      19A     -0.798476    20A     -0.757715    21A     -0.733936  
      22A     -0.634497    23A     -0.619738    24A     -0.604664  
      25A     -0.597741    26A     -0.594144    27A     -0.583494  
      28A     -0.559517    29A     -0.546898    30A     -0.536206  
      31A     -0.506908    32A     -0.491128    33A     -0.481169  
      34A     -0.478157    35A     -0.472680    36A     -0.459255  
      37A     -0.406526    38A     -0.375347    39A     -0.308267  

    Virtual:                                                              

      40A      0.161949    41A      0.177627    42A      0.186445  
      43A      0.193091    44A      0.206837    45A      0.218100  
      46A      0.228160    47A      0.235415    48A      0.251919  
      49A      0.253319    50A      0.261704    51A      0.269734  
      52A      0.280393    53A      0.291067    54A      0.305603  
      55A      0.318422    56A      0.319227    57A      0.336673  
      58A      0.376048    59A      0.389420    60A      0.396179  
      61A      0.415378    62A      0.423263    63A      0.446430  
      64A      0.479060    65A      0.492380    66A      0.571425  
      67A      0.598581    68A      0.604609    69A      0.614707  
      70A      0.623677    71A      0.630956    72A      0.648357  
      73A      0.660884    74A      0.675257    75A      0.696024  
      76A      0.712984    77A      0.730004    78A      0.748283  
      79A      0.768191    80A      0.769858    81A      0.787887  
      82A      0.800408    83A      0.822298    84A      0.830175  
      85A      0.849366    86A      0.858083    87A      0.879436  
      88A      0.883228    89A      0.889322    90A      0.892001  
      91A      0.895506    92A      0.896588    93A      0.903973  
      94A      0.912137    95A      0.914678    96A      0.921654  
      97A      0.933055    98A      0.937206    99A      0.944459  
     100A      0.951083   101A      0.967303   102A      0.994339  
     103A      1.004016   104A      1.022945   105A      1.038877  
     106A      1.048543   107A      1.073922   108A      1.096347  
     109A      1.105579   110A      1.117368   111A      1.130877  
     112A      1.140077   113A      1.178732   114A      1.219077  
     115A      1.234924   116A      1.245337   117A      1.271937  
     118A      1.309772   119A      1.327752   120A      1.335114  
     121A      1.374773   122A      1.403654   123A      1.432906  
     124A      1.437036   125A      1.461904   126A      1.475918  
     127A      1.496866   128A      1.522353   129A      1.524658  
     130A      1.535808   131A      1.558317   132A      1.599954  
     133A      1.628245   134A      1.669541   135A      1.684100  
     136A      1.686639   137A      1.690683   138A      1.700242  
     139A      1.730057   140A      1.763997   141A      1.775764  
     142A      1.821910   143A      1.829896   144A      1.872620  
     145A      1.878413   146A      1.883946   147A      1.886798  
     148A      1.902610   149A      1.905148   150A      1.912646  
     151A      1.922874   152A      1.935263   153A      1.949761  
     154A      1.959145   155A      1.961861   156A      1.965802  
     157A      1.976006   158A      1.987782   159A      2.002631  
     160A      2.004031   161A      2.011530   162A      2.017426  
     163A      2.024415   164A      2.027871   165A      2.036733  
     166A      2.042984   167A      2.071939   168A      2.114693  
     169A      2.126401   170A      2.144978   171A      2.162788  
     172A      2.171018   173A      2.194230   174A      2.217022  
     175A      2.245729   176A      2.293596   177A      2.302052  
     178A      2.313637   179A      2.318909   180A      2.325330  
     181A      2.332648   182A      2.334132   183A      2.397394  
     184A      2.433891   185A      2.455712   186A      2.462734  
     187A      2.499022   188A      2.502082   189A      2.546807  
     190A      2.575300   191A      2.587573   192A      2.597462  
     193A      2.614298   194A      2.622016   195A      2.634841  
     196A      2.702344   197A      2.730096   198A      2.750542  
     199A      2.762724   200A      2.769059   201A      2.783722  
     202A      2.799268   203A      2.806375   204A      2.809590  
     205A      2.848203   206A      2.875908   207A      2.885752  
     208A      2.914829   209A      2.919303   210A      2.940232  
     211A      2.956248   212A      2.966346   213A      2.983075  
     214A      3.001957   215A      3.064195   216A      3.112677  
     217A      3.180757   218A      3.266508   219A      3.480893  
     220A      3.797600  

    Final Occupation by Irrep:
              A 
    DOCC [    39 ]

  @RHF Final Energy:  -421.17392504185108

   => Energetics <=

    Nuclear Repulsion Energy =            504.1413190778250168
    One-Electron Energy =               -1569.1528786097030661
    Two-Electron Energy =                 643.8376344900269714
    Total Energy =                       -421.1739250418510210

Computation Completed


Properties will be evaluated at   0.000000,   0.000000,   0.000000 [a0]

Properties computed using the SCF density matrix

  Nuclear Dipole Moment: [e a0]
     X:     5.8753      Y:   -18.0169      Z:     8.9941

  Electronic Dipole Moment: [e a0]
     X:    -5.5641      Y:    17.6736      Z:   -10.2220

  Dipole Moment: [e a0]
     X:     0.3112      Y:    -0.3433      Z:    -1.2279     Total:     1.3124

  Dipole Moment: [D]
     X:     0.7911      Y:    -0.8725      Z:    -3.1210     Total:     3.3358


*** tstop() called on ds3 at Mon Apr 27 18:01:01 2020
Module time:
	user time   =      96.82 seconds =       1.61 minutes
	system time =      48.93 seconds =       0.82 minutes
	total time  =        168 seconds =       2.80 minutes
Total time:
	user time   =      96.82 seconds =       1.61 minutes
	system time =      48.93 seconds =       0.82 minutes
	total time  =        168 seconds =       2.80 minutes
                                     G D M A

                                 by Anthony Stone

                           version 2.2.06, 22 June 2011

               Distributed Multipoles from Gaussian wavefunctions


Starting at 18:1:1 on 27 Apr 2020   


Using SCF density matrix from file ./SSI/SSI-193HIE-248MET-1-dimer.test.18507.fchk


                         Distributed Multipole Analysis

Standard DMA

Positions and radii in angstrom
Multipole moments in atomic units, ea_0^k for rank k

C          x = -0.100371  y =  0.740238  z =  1.061180 angstrom
           Maximum rank =  0   Radius =  0.650 angstrom
                   Q00  =  -0.024457

C          x = -1.350371  y =  0.280238  z =  1.826180 angstrom
           Maximum rank =  0   Radius =  0.650 angstrom
                   Q00  =  -0.259230

C          x = -0.384371  y =  1.372238  z = -0.270820 angstrom
           Maximum rank =  0   Radius =  0.650 angstrom
                   Q00  =   0.224794

C          x =  0.009629  y =  1.002238  z = -1.517820 angstrom
           Maximum rank =  0   Radius =  0.650 angstrom
                   Q00  =  -0.008937

C          x = -1.196371  y =  2.834238  z = -1.698820 angstrom
           Maximum rank =  0   Radius =  0.650 angstrom
                   Q00  =   0.465861

N          x = -1.128371  y =  2.523238  z = -0.410820 angstrom
           Maximum rank =  0   Radius =  0.650 angstrom
                   Q00  =  -0.784344

N          x = -0.514371  y =  1.931238  z = -2.391820 angstrom
           Maximum rank =  0   Radius =  0.650 angstrom
                   Q00  =  -0.479696

H          x =  0.445629  y =  1.447238  z =  1.682180 angstrom
           Maximum rank =  0   Radius =  0.325 angstrom
                   Q00  =   0.085685

H          x =  0.565629  y = -0.093762  z =  0.889180 angstrom
           Maximum rank =  0   Radius =  0.325 angstrom
                   Q00  =   0.073355

H          x = -1.013371  y = -0.511762  z =  2.498180 angstrom
           Maximum rank =  0   Radius =  0.325 angstrom
                   Q00  =   0.076927

H          x =  0.610629  y =  0.133238  z = -1.762820 angstrom
           Maximum rank =  0   Radius =  0.325 angstrom
                   Q00  =   0.105291

H          x = -1.746371  y =  3.665238  z = -2.114820 angstrom
           Maximum rank =  0   Radius =  0.325 angstrom
                   Q00  =   0.122717

H          x = -0.484371  y =  1.907238  z = -3.400820 angstrom
           Maximum rank =  0   Radius =  0.325 angstrom
                   Q00  =   0.216729

H          x = -2.127591  y = -0.103852  z =  1.149130 angstrom
           Maximum rank =  0   Radius =  0.325 angstrom
                   Q00  =   0.086689

H          x = -1.750941  y =  1.071268  z =  2.477190 angstrom
           Maximum rank =  0   Radius =  0.325 angstrom
                   Q00  =   0.097287

C          x =  1.455629  y = -2.716762  z =  1.018180 angstrom
           Maximum rank =  0   Radius =  0.650 angstrom
                   Q00  =  -0.075565

C          x =  1.254629  y = -3.557762  z =  2.279180 angstrom
           Maximum rank =  0   Radius =  0.650 angstrom
                   Q00  =  -0.245309

C          x =  1.702629  y = -3.539762  z = -0.231820 angstrom
           Maximum rank =  0   Radius =  0.650 angstrom
                   Q00  =  -0.234651

H          x =  0.541629  y = -2.156762  z =  0.844180 angstrom
           Maximum rank =  0   Radius =  0.325 angstrom
                   Q00  =   0.040809

H          x =  2.286629  y = -2.025762  z =  1.157180 angstrom
           Maximum rank =  0   Radius =  0.325 angstrom
                   Q00  =   0.045302

H          x =  2.124629  y = -4.203762  z =  2.420180 angstrom
           Maximum rank =  0   Radius =  0.325 angstrom
                   Q00  =   0.076461

H          x =  2.512629  y = -4.238762  z = -0.029820 angstrom
           Maximum rank =  0   Radius =  0.325 angstrom
                   Q00  =   0.073545

H          x =  0.799629  y = -4.100762  z = -0.468820 angstrom
           Maximum rank =  0   Radius =  0.325 angstrom
                   Q00  =   0.075419

H          x =  0.336907  y = -4.157753  z =  2.190880 angstrom
           Maximum rank =  0   Radius =  0.325 angstrom
                   Q00  =   0.078829

H          x =  1.179414  y = -2.903248  z =  3.160060 angstrom
           Maximum rank =  0   Radius =  0.325 angstrom
                   Q00  =   0.085775

H          x =  1.981407  y = -2.932902  z = -1.105890 angstrom
           Maximum rank =  0   Radius =  0.325 angstrom
                   Q00  =   0.080713

Total multipoles referred to origin at
           x =   0.000000,  y =    0.000000,  z =    0.000000 angstrom
                   Q00  =  -0.000000

Finished at 18:1:1 on 27 Apr 2020   

  DMA results are available in the Python driver through the
	  variable('DMA DISTRIBUTED MULTIPOLES')
  and
	  variable('DMA TOTAL MULTIPOLES')
  commands.


    Psi4 stopped on: Monday, 27 April 2020 06:01PM
    Psi4 wall time for execution: 0:02:48.05

*** Psi4 exiting successfully. Buy a developer a beer!
