
    -----------------------------------------------------------------------
          Psi4: An Open-Source Ab Initio Electronic Structure Package
                               Psi4 1.3.2 release

                         Git: Rev {HEAD} ecbda83 


    R. M. Parrish, L. A. Burns, D. G. A. Smith, A. C. Simmonett,
    A. E. DePrince III, E. G. Hohenstein, U. Bozkaya, A. Yu. Sokolov,
    R. Di Remigio, R. M. Richard, J. F. Gonthier, A. M. James,
    H. R. McAlexander, A. Kumar, M. Saitow, X. Wang, B. P. Pritchard,
    P. Verma, H. F. Schaefer III, K. Patkowski, R. A. King, E. F. Valeev,
    F. A. Evangelista, J. M. Turney, T. D. Crawford, and C. D. Sherrill,
    J. Chem. Theory Comput. 13(7) pp 3185--3197 (2017).
    (doi: 10.1021/acs.jctc.7b00174)


                         Additional Contributions by
    P. Kraus, H. Kruse, M. H. Lechner, M. C. Schieber, R. A. Shaw,
    A. Alenaizan, R. Galvelis, Z. L. Glick, S. Lehtola, and J. P. Misiewicz

    -----------------------------------------------------------------------


    Psi4 started on: Tuesday, 28 April 2020 10:01AM

    Process ID: 3466
    Host:       ds3
    PSIDATADIR: /theoryfs2/ds/metcalf/miniconda2/envs/tf2gpu/share/psi4
    Memory:     500.0 MiB
    Threads:    1
    
  ==> Input File <==

--------------------------------------------------------------------------
import numpy as np
set {scf_type pk
basis cc-pvdz
d_convergence 10
gdma_switch   0
gdma_limit    0
gdma_origin   [ 0.0,  0.0,  0.0 ]
}
molecule test {
    units Angstrom
    0 1
    --
    0 1
    C                0.190578260970430     1.542564147132308     2.623222599445042
    C                0.591578260970429     0.166564147132309     2.118222599445042
    O                1.761578260970430    -0.110435852867691     1.869222599445042
    N               -0.385421739029570    -0.710435852867692     1.958222599445042
    H               -0.124421739029570    -1.678435852867691     1.827222599445042
    H               -1.329421739029570    -0.470435852867691     2.232222599445042
    H               -0.577421739029571     1.414564147132308     3.388222599445041
    H               -0.247421739029570     2.107564147132309     1.799222599445042
    H                1.032558260970430     2.095027147132309     3.065767599445042
    C               -0.604421739029570     1.169564147132308    -1.691777400554958
    C               -0.517421739029571    -0.250435852867691    -2.214777400554958
    O               -0.526421739029571    -0.486435852867691    -3.421777400554958
    N               -0.440421739029571    -1.210435852867692    -1.307777400554958
    H               -0.405421739029570    -2.168435852867691    -1.626777400554958
    H               -0.473421739029571    -0.987435852867691    -0.325777400554958
    H               -0.816421739029570     1.157564147132308    -0.621777400554958
    H               -1.450421739029570     1.645564147132309    -2.190777400554958
    H                0.308138260970429     1.752310147132308    -1.885787400554958

}
e, wfn = energy('scf', return_wfn=True)
gdma(wfn)
dmavals = variable('DMA DISTRIBUTED MULTIPOLES')
charges = np.array(dmavals)
print(charges)
np.save('SSI-126ASN-129ASN-1-dimer.npy', np.array(charges))--------------------------------------------------------------------------

*** tstart() called on ds3
*** at Tue Apr 28 10:01:35 2020

   => Loading Basis Set <=

    Name: CC-PVDZ
    Role: ORBITAL
    Keyword: BASIS
    atoms 1-2, 10-11 entry C          line   138 file /theoryfs2/ds/metcalf/miniconda2/envs/tf2gpu/share/psi4/basis/cc-pvdz.gbs 
    atoms 3, 12      entry O          line   198 file /theoryfs2/ds/metcalf/miniconda2/envs/tf2gpu/share/psi4/basis/cc-pvdz.gbs 
    atoms 4, 13      entry N          line   168 file /theoryfs2/ds/metcalf/miniconda2/envs/tf2gpu/share/psi4/basis/cc-pvdz.gbs 
    atoms 5-9, 14-18 entry H          line    22 file /theoryfs2/ds/metcalf/miniconda2/envs/tf2gpu/share/psi4/basis/cc-pvdz.gbs 


         ---------------------------------------------------------
                                   SCF
               by Justin Turney, Rob Parrish, Andy Simmonett
                          and Daniel G. A. Smith
                              RHF Reference
                        1 Threads,    500 MiB Core
         ---------------------------------------------------------

  ==> Geometry <==

    Molecular point group: c1
    Full point group: C1

    Geometry (in Angstrom), charge = 0, multiplicity = 1:

       Center              X                  Y                   Z               Mass       
    ------------   -----------------  -----------------  -----------------  -----------------
         C            0.190578260970     1.542564147132     2.623222599445    12.000000000000
         C            0.591578260970     0.166564147132     2.118222599445    12.000000000000
         O            1.761578260970    -0.110435852868     1.869222599445    15.994914619570
         N           -0.385421739030    -0.710435852868     1.958222599445    14.003074004430
         H           -0.124421739030    -1.678435852868     1.827222599445     1.007825032230
         H           -1.329421739030    -0.470435852868     2.232222599445     1.007825032230
         H           -0.577421739030     1.414564147132     3.388222599445     1.007825032230
         H           -0.247421739030     2.107564147132     1.799222599445     1.007825032230
         H            1.032558260970     2.095027147132     3.065767599445     1.007825032230
         C           -0.604421739030     1.169564147132    -1.691777400555    12.000000000000
         C           -0.517421739030    -0.250435852868    -2.214777400555    12.000000000000
         O           -0.526421739030    -0.486435852868    -3.421777400555    15.994914619570
         N           -0.440421739030    -1.210435852868    -1.307777400555    14.003074004430
         H           -0.405421739030    -2.168435852868    -1.626777400555     1.007825032230
         H           -0.473421739030    -0.987435852868    -0.325777400555     1.007825032230
         H           -0.816421739030     1.157564147132    -0.621777400555     1.007825032230
         H           -1.450421739030     1.645564147132    -2.190777400555     1.007825032230
         H            0.308138260970     1.752310147132    -1.885787400555     1.007825032230

  Running in c1 symmetry.

  Rotational constants: A =      0.11765  B =      0.02476  C =      0.02311 [cm^-1]
  Rotational constants: A =   3527.09960  B =    742.31506  C =    692.68139 [MHz]
  Nuclear repulsion =  364.569504927309595

  Charge       = 0
  Multiplicity = 1
  Electrons    = 64
  Nalpha       = 32
  Nbeta        = 32

  ==> Algorithm <==

  SCF Algorithm Type is PK.
  DIIS enabled.
  MOM disabled.
  Fractional occupation disabled.
  Guess Type is SAD.
  Energy threshold   = 1.00e-06
  Density threshold  = 1.00e-10
  Integral threshold = 0.00e+00

  ==> Primary Basis <==

  Basis Set: CC-PVDZ
    Blend: CC-PVDZ
    Number of shells: 78
    Number of basis function: 162
    Number of Cartesian functions: 170
    Spherical Harmonics?: true
    Max angular momentum: 2

  ==> Pre-Iterations <==

   -------------------------------------------------------
    Irrep   Nso     Nmo     Nalpha   Nbeta   Ndocc  Nsocc
   -------------------------------------------------------
     A        162     162       0       0       0       0
   -------------------------------------------------------
    Total     162     162      32      32      32       0
   -------------------------------------------------------

  ==> Integral Setup <==

  Using integral reordering PK algorithm.
  Sizing the integral batches needed.
  Building batch lookup table.
   Calculation information:
      Number of atoms:                  18
      Number of AO shells:              78
      Number of primitives:            226
      Number of atomic orbitals:       170
      Number of basis functions:       162

      Integral cutoff                 1.00e-12
      Number of threads:                 1

	Batch   1 pq = [       0,    9405] index = [             0,44231715] size =     44231715
	Batch   2 pq = [    9405,   13203] index = [      44231715,87166206] size =     42934491
  Task number: 8
  Buffer size: 11059200
  Buffer per thread: 2
  We computed 4083341 shell quartets total.
  Whereas there are 4747821 unique shell quartets.

  ==> DiskJK: Disk-Based J/K Matrices <==

    J tasked:                  Yes
    K tasked:                  Yes
    wK tasked:                  No
    Memory [MiB]:              375
    Schwarz Cutoff:          1E-12

    OpenMP threads:              1

  Minimum eigenvalue in the overlap matrix is 4.3658243882E-03.
  Using Symmetric Orthogonalization.

  SCF Guess: Superposition of Atomic Densities via on-the-fly atomic UHF.

  ==> Iterations <==

                        Total Energy        Delta E     RMS |[F,P]|

   @RHF iter SAD:  -414.56699529231184   -4.14567e+02   0.00000e+00 
   @RHF iter   1:  -415.68339394485889   -1.11640e+00   4.75389e-03 DIIS
   @RHF iter   2:  -415.89928829092639   -2.15894e-01   2.93027e-03 DIIS
   @RHF iter   3:  -415.97968177022631   -8.03935e-02   5.40915e-04 DIIS
   @RHF iter   4:  -415.98426636123486   -4.58459e-03   2.01126e-04 DIIS
   @RHF iter   5:  -415.98504549480526   -7.79134e-04   3.81176e-05 DIIS
   @RHF iter   6:  -415.98509976510422   -5.42703e-05   1.90188e-05 DIIS
   @RHF iter   7:  -415.98510940953889   -9.64443e-06   7.45408e-06 DIIS
   @RHF iter   8:  -415.98511135970523   -1.95017e-06   2.61513e-06 DIIS
   @RHF iter   9:  -415.98511157360474   -2.13900e-07   1.13726e-06 DIIS
   @RHF iter  10:  -415.98511160139753   -2.77928e-08   2.79813e-07 DIIS
   @RHF iter  11:  -415.98511160383214   -2.43460e-09   4.66398e-08 DIIS
   @RHF iter  12:  -415.98511160390740   -7.52607e-11   1.46638e-08 DIIS
   @RHF iter  13:  -415.98511160391558   -8.18545e-12   5.50479e-09 DIIS
   @RHF iter  14:  -415.98511160391348    2.10321e-12   2.48896e-09 DIIS
   @RHF iter  15:  -415.98511160391661   -3.12639e-12   1.10066e-09 DIIS
   @RHF iter  16:  -415.98511160391416    2.44427e-12   3.71076e-10 DIIS
   @RHF iter  17:  -415.98511160391610   -1.93268e-12   1.15669e-10 DIIS
   @RHF iter  18:  -415.98511160391547    6.25278e-13   3.52661e-11 DIIS
  Energy and wave function converged.


  ==> Post-Iterations <==

    Orbital Energies [Eh]
    ---------------------

    Doubly Occupied:                                                      

       1A    -20.525137     2A    -20.494661     3A    -15.615354  
       4A    -15.580113     5A    -11.367309     6A    -11.341022  
       7A    -11.258992     8A    -11.239913     9A     -1.390032  
      10A     -1.359527    11A     -1.244232    12A     -1.210448  
      13A     -1.017117    14A     -0.995840    15A     -0.822596  
      16A     -0.793736    17A     -0.752628    18A     -0.723552  
      19A     -0.672672    20A     -0.649675    21A     -0.632943  
      22A     -0.606542    23A     -0.589406    24A     -0.574564  
      25A     -0.563912    26A     -0.553873    27A     -0.541575  
      28A     -0.516921    29A     -0.430763    30A     -0.427195  
      31A     -0.402734    32A     -0.395355  

    Virtual:                                                              

      33A      0.136610    34A      0.170667    35A      0.187485  
      36A      0.198989    37A      0.205272    38A      0.216952  
      39A      0.229320    40A      0.248250    41A      0.252313  
      42A      0.286610    43A      0.288345    44A      0.348169  
      45A      0.375482    46A      0.399708    47A      0.448658  
      48A      0.468763    49A      0.542020    50A      0.576687  
      51A      0.601919    52A      0.619469    53A      0.655181  
      54A      0.667282    55A      0.677632    56A      0.706105  
      57A      0.706668    58A      0.722451    59A      0.729696  
      60A      0.744654    61A      0.762168    62A      0.790465  
      63A      0.823332    64A      0.858570    65A      0.860710  
      66A      0.867030    67A      0.882431    68A      0.895308  
      69A      0.903631    70A      0.925528    71A      0.933711  
      72A      0.953755    73A      0.984726    74A      1.014214  
      75A      1.035501    76A      1.040960    77A      1.067235  
      78A      1.095248    79A      1.108715    80A      1.116130  
      81A      1.131023    82A      1.215789    83A      1.277771  
      84A      1.324903    85A      1.339455    86A      1.357242  
      87A      1.371884    88A      1.373438    89A      1.387481  
      90A      1.394220    91A      1.423231    92A      1.447142  
      93A      1.460694    94A      1.474031    95A      1.505114  
      96A      1.548079    97A      1.625788    98A      1.631194  
      99A      1.642335   100A      1.660381   101A      1.705761  
     102A      1.723677   103A      1.778263   104A      1.823197  
     105A      1.831305   106A      1.844209   107A      1.864117  
     108A      1.875521   109A      1.889704   110A      1.903508  
     111A      1.923259   112A      1.930870   113A      1.940502  
     114A      1.972451   115A      1.977678   116A      2.000340  
     117A      2.033699   118A      2.057989   119A      2.069106  
     120A      2.112094   121A      2.147845   122A      2.183259  
     123A      2.199971   124A      2.231967   125A      2.242014  
     126A      2.310725   127A      2.370257   128A      2.423635  
     129A      2.442131   130A      2.446079   131A      2.448477  
     132A      2.477850   133A      2.516012   134A      2.538795  
     135A      2.569094   136A      2.596622   137A      2.610508  
     138A      2.655923   139A      2.726608   140A      2.732162  
     141A      2.751613   142A      2.781928   143A      2.796613  
     144A      2.817453   145A      2.843963   146A      2.868323  
     147A      2.958231   148A      2.980864   149A      3.068335  
     150A      3.098957   151A      3.121355   152A      3.139470  
     153A      3.245506   154A      3.343213   155A      3.459872  
     156A      3.516154   157A      3.528523   158A      3.538518  
     159A      3.842960   160A      3.874311   161A      3.881241  
     162A      3.912269  

    Final Occupation by Irrep:
              A 
    DOCC [    32 ]

  @RHF Final Energy:  -415.98511160391547

   => Energetics <=

    Nuclear Repulsion Energy =            364.5695049273095947
    One-Electron Energy =               -1290.5285526199309061
    Two-Electron Energy =                 509.9739360887058410
    Total Energy =                       -415.9851116039154704

Computation Completed


Properties will be evaluated at   0.000000,   0.000000,   0.000000 [a0]

Properties computed using the SCF density matrix

  Nuclear Dipole Moment: [e a0]
     X:    -3.8200      Y:     4.5662      Z:     5.2984

  Electronic Dipole Moment: [e a0]
     X:     2.2791      Y:    -4.4547      Z:    -3.0180

  Dipole Moment: [e a0]
     X:    -1.5409      Y:     0.1115      Z:     2.2804     Total:     2.7544

  Dipole Moment: [D]
     X:    -3.9166      Y:     0.2834      Z:     5.7961     Total:     7.0011


*** tstop() called on ds3 at Tue Apr 28 10:02:21 2020
Module time:
	user time   =      32.62 seconds =       0.54 minutes
	system time =      15.13 seconds =       0.25 minutes
	total time  =         46 seconds =       0.77 minutes
Total time:
	user time   =      32.62 seconds =       0.54 minutes
	system time =      15.13 seconds =       0.25 minutes
	total time  =         46 seconds =       0.77 minutes
                                     G D M A

                                 by Anthony Stone

                           version 2.2.06, 22 June 2011

               Distributed Multipoles from Gaussian wavefunctions


Starting at 10:2:21 on 28 Apr 2020  


Using SCF density matrix from file ./SSI/SSI-126ASN-129ASN-1-dimer.test.3466.fchk


                         Distributed Multipole Analysis

Standard DMA

Positions and radii in angstrom
Multipole moments in atomic units, ea_0^k for rank k

C          x =  0.190578  y =  1.542564  z =  2.623223 angstrom
           Maximum rank =  0   Radius =  0.650 angstrom
                   Q00  =  -0.264164

C          x =  0.591578  y =  0.166564  z =  2.118223 angstrom
           Maximum rank =  0   Radius =  0.650 angstrom
                   Q00  =   0.799595

O          x =  1.761578  y = -0.110436  z =  1.869223 angstrom
           Maximum rank =  0   Radius =  0.650 angstrom
                   Q00  =  -0.776379

N          x = -0.385422  y = -0.710436  z =  1.958223 angstrom
           Maximum rank =  0   Radius =  0.650 angstrom
                   Q00  =  -0.542451

H          x = -0.124422  y = -1.678436  z =  1.827223 angstrom
           Maximum rank =  0   Radius =  0.325 angstrom
                   Q00  =   0.223803

H          x = -1.329422  y = -0.470436  z =  2.232223 angstrom
           Maximum rank =  0   Radius =  0.325 angstrom
                   Q00  =   0.209951

H          x = -0.577422  y =  1.414564  z =  3.388223 angstrom
           Maximum rank =  0   Radius =  0.325 angstrom
                   Q00  =   0.087783

H          x = -0.247422  y =  2.107564  z =  1.799223 angstrom
           Maximum rank =  0   Radius =  0.325 angstrom
                   Q00  =   0.124691

H          x =  1.032558  y =  2.095027  z =  3.065768 angstrom
           Maximum rank =  0   Radius =  0.325 angstrom
                   Q00  =   0.138710

C          x = -0.604422  y =  1.169564  z = -1.691777 angstrom
           Maximum rank =  0   Radius =  0.650 angstrom
                   Q00  =  -0.255798

C          x = -0.517422  y = -0.250436  z = -2.214777 angstrom
           Maximum rank =  0   Radius =  0.650 angstrom
                   Q00  =   0.823286

O          x = -0.526422  y = -0.486436  z = -3.421777 angstrom
           Maximum rank =  0   Radius =  0.650 angstrom
                   Q00  =  -0.805038

N          x = -0.440422  y = -1.210436  z = -1.307777 angstrom
           Maximum rank =  0   Radius =  0.650 angstrom
                   Q00  =  -0.531315

H          x = -0.405422  y = -2.168436  z = -1.626777 angstrom
           Maximum rank =  0   Radius =  0.325 angstrom
                   Q00  =   0.215444

H          x = -0.473422  y = -0.987436  z = -0.325777 angstrom
           Maximum rank =  0   Radius =  0.325 angstrom
                   Q00  =   0.227856

H          x = -0.816422  y =  1.157564  z = -0.621777 angstrom
           Maximum rank =  0   Radius =  0.325 angstrom
                   Q00  =   0.058648

H          x = -1.450422  y =  1.645564  z = -2.190777 angstrom
           Maximum rank =  0   Radius =  0.325 angstrom
                   Q00  =   0.125733

H          x =  0.308138  y =  1.752310  z = -1.885787 angstrom
           Maximum rank =  0   Radius =  0.325 angstrom
                   Q00  =   0.139644

Total multipoles referred to origin at
           x =   0.000000,  y =    0.000000,  z =    0.000000 angstrom
                   Q00  =  -0.000000

Finished at 10:2:21 on 28 Apr 2020  

  DMA results are available in the Python driver through the
	  variable('DMA DISTRIBUTED MULTIPOLES')
  and
	  variable('DMA TOTAL MULTIPOLES')
  commands.


    Psi4 stopped on: Tuesday, 28 April 2020 10:02AM
    Psi4 wall time for execution: 0:00:46.27

*** Psi4 exiting successfully. Buy a developer a beer!
