
    -----------------------------------------------------------------------
          Psi4: An Open-Source Ab Initio Electronic Structure Package
                               Psi4 1.3.2 release

                         Git: Rev {HEAD} ecbda83 


    R. M. Parrish, L. A. Burns, D. G. A. Smith, A. C. Simmonett,
    A. E. DePrince III, E. G. Hohenstein, U. Bozkaya, A. Yu. Sokolov,
    R. Di Remigio, R. M. Richard, J. F. Gonthier, A. M. James,
    H. R. McAlexander, A. Kumar, M. Saitow, X. Wang, B. P. Pritchard,
    P. Verma, H. F. Schaefer III, K. Patkowski, R. A. King, E. F. Valeev,
    F. A. Evangelista, J. M. Turney, T. D. Crawford, and C. D. Sherrill,
    J. Chem. Theory Comput. 13(7) pp 3185--3197 (2017).
    (doi: 10.1021/acs.jctc.7b00174)


                         Additional Contributions by
    P. Kraus, H. Kruse, M. H. Lechner, M. C. Schieber, R. A. Shaw,
    A. Alenaizan, R. Galvelis, Z. L. Glick, S. Lehtola, and J. P. Misiewicz

    -----------------------------------------------------------------------


    Psi4 started on: Monday, 27 April 2020 01:00PM

    Process ID: 4946
    Host:       ds3
    PSIDATADIR: /theoryfs2/ds/metcalf/miniconda2/envs/tf2gpu/share/psi4
    Memory:     500.0 MiB
    Threads:    1
    
  ==> Input File <==

--------------------------------------------------------------------------
import numpy as np
set {scf_type pk
basis cc-pvdz
d_convergence 10
gdma_switch   0
gdma_limit    0
gdma_origin   [ 0.0,  0.0,  0.0 ]
}
molecule test {
    units Angstrom
    0 1
    --
    0 1
    C                2.054083933388980    -2.563149598369368    -2.384795781600714
    C                1.209083933388980    -2.481149598369368    -3.648795781600714
    H                2.753083933388980    -3.397149598369368    -2.461795781600714
    H                2.625083933388980    -1.641149598369368    -2.264795781600714
    H                1.448083933388980    -2.707149598369368    -1.495795781600714
    H                0.663083933388980    -1.535149598369368    -3.640795781600713
    H                0.480143933388980    -3.304948598369368    -3.646655781600714
    H                1.821923933388980    -2.514642598369368    -4.561645781600713
    C                2.173083933388980     1.608850401630632     1.694204218399286
    C                1.372083933388980    -0.498149598369368     0.554204218399286
    C                1.168083933388980     0.719850401630632     1.102204218399286
    C               -0.773916066611020    -0.166149598369368     0.351204218399287
    C               -0.227916066611020     0.999850401630632     0.973204218399287
    C               -2.064916066611020    -0.460149598369368    -0.005795781600714
    C               -1.081916066611020     2.053850401630632     1.287204218399286
    C               -2.682916066611020     0.664850401630632     0.118204218399286
    C               -2.304916066611020     1.921850401630632     0.797204218399286
    N                0.239083933388980    -1.028149598369368     0.134204218399286
    H                2.316083933388980    -0.831149598369368     0.204204218399286
    H                0.171083933388980    -1.899149598369368    -0.373795781600713
    H                2.586083933388980     1.142850401630632     2.590204218399287
    H                1.665083933388980     2.525850401630632     1.995204218399286
    H               -2.376916066611020    -1.309149598369368    -0.580795781600714
    H               -0.717916066611020     2.984850401630632     1.697204218399286
    H               -3.097916066611020     0.675850401630632    -0.859795781600714
    H               -2.821916066611020     2.813850401630632     0.573204218399286
    H                2.975843933388980     1.845345401630632     0.980314218399286

}
e, wfn = energy('scf', return_wfn=True)
gdma(wfn)
dmavals = variable('DMA DISTRIBUTED MULTIPOLES')
charges = np.array(dmavals)
print(charges)
np.save('SSI-061ILE-092TRP-1-dimer.npy', np.array(charges))--------------------------------------------------------------------------

*** tstart() called on ds3
*** at Mon Apr 27 13:00:38 2020

   => Loading Basis Set <=

    Name: CC-PVDZ
    Role: ORBITAL
    Keyword: BASIS
    atoms 1-2, 9-17  entry C          line   138 file /theoryfs2/ds/metcalf/miniconda2/envs/tf2gpu/share/psi4/basis/cc-pvdz.gbs 
    atoms 3-8, 19-27 entry H          line    22 file /theoryfs2/ds/metcalf/miniconda2/envs/tf2gpu/share/psi4/basis/cc-pvdz.gbs 
    atoms 18         entry N          line   168 file /theoryfs2/ds/metcalf/miniconda2/envs/tf2gpu/share/psi4/basis/cc-pvdz.gbs 


         ---------------------------------------------------------
                                   SCF
               by Justin Turney, Rob Parrish, Andy Simmonett
                          and Daniel G. A. Smith
                              RHF Reference
                        1 Threads,    500 MiB Core
         ---------------------------------------------------------

  ==> Geometry <==

    Molecular point group: c1
    Full point group: C1

    Geometry (in Angstrom), charge = 0, multiplicity = 1:

       Center              X                  Y                   Z               Mass       
    ------------   -----------------  -----------------  -----------------  -----------------
         C            2.054083933389    -2.563149598369    -2.384795781601    12.000000000000
         C            1.209083933389    -2.481149598369    -3.648795781601    12.000000000000
         H            2.753083933389    -3.397149598369    -2.461795781601     1.007825032230
         H            2.625083933389    -1.641149598369    -2.264795781601     1.007825032230
         H            1.448083933389    -2.707149598369    -1.495795781601     1.007825032230
         H            0.663083933389    -1.535149598369    -3.640795781601     1.007825032230
         H            0.480143933389    -3.304948598369    -3.646655781601     1.007825032230
         H            1.821923933389    -2.514642598369    -4.561645781601     1.007825032230
         C            2.173083933389     1.608850401631     1.694204218399    12.000000000000
         C            1.372083933389    -0.498149598369     0.554204218399    12.000000000000
         C            1.168083933389     0.719850401631     1.102204218399    12.000000000000
         C           -0.773916066611    -0.166149598369     0.351204218399    12.000000000000
         C           -0.227916066611     0.999850401631     0.973204218399    12.000000000000
         C           -2.064916066611    -0.460149598369    -0.005795781601    12.000000000000
         C           -1.081916066611     2.053850401631     1.287204218399    12.000000000000
         C           -2.682916066611     0.664850401631     0.118204218399    12.000000000000
         C           -2.304916066611     1.921850401631     0.797204218399    12.000000000000
         N            0.239083933389    -1.028149598369     0.134204218399    14.003074004430
         H            2.316083933389    -0.831149598369     0.204204218399     1.007825032230
         H            0.171083933389    -1.899149598369    -0.373795781601     1.007825032230
         H            2.586083933389     1.142850401631     2.590204218399     1.007825032230
         H            1.665083933389     2.525850401631     1.995204218399     1.007825032230
         H           -2.376916066611    -1.309149598369    -0.580795781601     1.007825032230
         H           -0.717916066611     2.984850401631     1.697204218399     1.007825032230
         H           -3.097916066611     0.675850401631    -0.859795781601     1.007825032230
         H           -2.821916066611     2.813850401631     0.573204218399     1.007825032230
         H            2.975843933389     1.845345401631     0.980314218399     1.007825032230

  Running in c1 symmetry.

  Rotational constants: A =      0.04099  B =      0.01891  C =      0.01398 [cm^-1]
  Rotational constants: A =   1228.98755  B =    567.03250  C =    419.00515 [MHz]
  Nuclear repulsion =  663.217243209907565

  Charge       = 0
  Multiplicity = 1
  Electrons    = 88
  Nalpha       = 44
  Nbeta        = 44

  ==> Algorithm <==

  SCF Algorithm Type is PK.
  DIIS enabled.
  MOM disabled.
  Fractional occupation disabled.
  Guess Type is SAD.
  Energy threshold   = 1.00e-06
  Density threshold  = 1.00e-10
  Integral threshold = 0.00e+00

  ==> Primary Basis <==

  Basis Set: CC-PVDZ
    Blend: CC-PVDZ
    Number of shells: 117
    Number of basis function: 243
    Number of Cartesian functions: 255
    Spherical Harmonics?: true
    Max angular momentum: 2

  ==> Pre-Iterations <==

   -------------------------------------------------------
    Irrep   Nso     Nmo     Nalpha   Nbeta   Ndocc  Nsocc
   -------------------------------------------------------
     A        243     243       0       0       0       0
   -------------------------------------------------------
    Total     243     243      44      44      44       0
   -------------------------------------------------------

  ==> Integral Setup <==

  Using integral reordering PK algorithm.
  Sizing the integral batches needed.
  Building batch lookup table.
   Calculation information:
      Number of atoms:                  27
      Number of AO shells:             117
      Number of primitives:            339
      Number of atomic orbitals:       255
      Number of basis functions:       243

      Integral cutoff                 1.00e-12
      Number of threads:                 1

	Batch   1 pq = [       0,    9405] index = [             0,44231715] size =     44231715
	Batch   2 pq = [    9405,   13301] index = [      44231715,88464951] size =     44233236
	Batch   3 pq = [   13301,   16290] index = [      88464951,132690195] size =     44225244
	Batch   4 pq = [   16290,   18810] index = [     132690195,176917455] size =     44227260
	Batch   5 pq = [   18810,   21030] index = [     176917455,221140965] size =     44223510
	Batch   6 pq = [   21030,   23037] index = [     221140965,265363203] size =     44222238
	Batch   7 pq = [   23037,   24883] index = [     265363203,309594286] size =     44231083
	Batch   8 pq = [   24883,   26601] index = [     309594286,353819901] size =     44225615
	Batch   9 pq = [   26601,   28214] index = [     353819901,398029005] size =     44209104
	Batch  10 pq = [   28214,   29646] index = [     398029005,439457481] size =     41428476
  Task number: 40
  Buffer size: 11059200
  Buffer per thread: 2
  We computed 22923424 shell quartets total.
  Whereas there are 23829156 unique shell quartets.

  ==> DiskJK: Disk-Based J/K Matrices <==

    J tasked:                  Yes
    K tasked:                  Yes
    wK tasked:                  No
    Memory [MiB]:              375
    Schwarz Cutoff:          1E-12

    OpenMP threads:              1

  Minimum eigenvalue in the overlap matrix is 2.7567874887E-04.
  Using Symmetric Orthogonalization.

  SCF Guess: Superposition of Atomic Densities via on-the-fly atomic UHF.

  ==> Iterations <==

                        Total Energy        Delta E     RMS |[F,P]|

   @RHF iter SAD:  -479.72239301649233   -4.79722e+02   0.00000e+00 
   @RHF iter   1:  -479.35454793408121    3.67845e-01   2.69500e-03 DIIS
   @RHF iter   2:  -479.59938097448156   -2.44833e-01   1.18374e-03 DIIS
   @RHF iter   3:  -479.64286856296741   -4.34876e-02   3.09371e-04 DIIS
   @RHF iter   4:  -479.64677377548026   -3.90521e-03   1.40598e-04 DIIS
   @RHF iter   5:  -479.64744561227985   -6.71837e-04   2.26068e-05 DIIS
   @RHF iter   6:  -479.64748395996423   -3.83477e-05   1.04800e-05 DIIS
   @RHF iter   7:  -479.64749381333485   -9.85337e-06   4.67151e-06 DIIS
   @RHF iter   8:  -479.64749713039635   -3.31706e-06   2.02636e-06 DIIS
   @RHF iter   9:  -479.64749788761287   -7.57217e-07   8.97548e-07 DIIS
   @RHF iter  10:  -479.64749801806931   -1.30456e-07   3.72125e-07 DIIS
   @RHF iter  11:  -479.64749804070186   -2.26325e-08   1.53695e-07 DIIS
   @RHF iter  12:  -479.64749804406995   -3.36809e-09   4.46855e-08 DIIS
   @RHF iter  13:  -479.64749804431756   -2.47610e-10   1.64197e-08 DIIS
   @RHF iter  14:  -479.64749804435024   -3.26850e-11   8.29467e-09 DIIS
   @RHF iter  15:  -479.64749804435911   -8.86757e-12   4.04236e-09 DIIS
   @RHF iter  16:  -479.64749804436576   -6.65068e-12   1.54377e-09 DIIS
   @RHF iter  17:  -479.64749804436724   -1.47793e-12   5.38241e-10 DIIS
   @RHF iter  18:  -479.64749804436343    3.80851e-12   2.32098e-10 DIIS
   @RHF iter  19:  -479.64749804436434   -9.09495e-13   1.00206e-10 DIIS
   @RHF iter  20:  -479.64749804435542    8.92442e-12   4.19262e-11 DIIS
  Energy and wave function converged.


  ==> Post-Iterations <==

    Orbital Energies [Eh]
    ---------------------

    Doubly Occupied:                                                      

       1A    -15.593802     2A    -11.256813     3A    -11.239590  
       4A    -11.232252     5A    -11.231197     6A    -11.227783  
       7A    -11.224301     8A    -11.219582     9A    -11.215325  
      10A    -11.214362    11A    -11.213244    12A    -11.205425  
      13A     -1.315714    14A     -1.153816    15A     -1.088662  
      16A     -1.034237    17A     -1.029998    18A     -0.976468  
      19A     -0.934649    20A     -0.852394    21A     -0.832963  
      22A     -0.804879    23A     -0.761267    24A     -0.732722  
      25A     -0.662581    26A     -0.641092    27A     -0.626967  
      28A     -0.617299    29A     -0.611562    30A     -0.604209  
      31A     -0.590647    32A     -0.562365    33A     -0.554736  
      34A     -0.538815    35A     -0.520129    36A     -0.518228  
      37A     -0.500341    38A     -0.497459    39A     -0.495134  
      40A     -0.480134    41A     -0.434528    42A     -0.372032  
      43A     -0.293259    44A     -0.259302  

    Virtual:                                                              

      45A      0.128936    46A      0.156469    47A      0.164521  
      48A      0.189780    49A      0.195858    50A      0.206993  
      51A      0.211892    52A      0.226592    53A      0.229160  
      54A      0.243644    55A      0.254040    56A      0.260135  
      57A      0.274134    58A      0.274756    59A      0.293611  
      60A      0.302039    61A      0.320099    62A      0.340539  
      63A      0.361636    64A      0.379912    65A      0.400002  
      66A      0.414040    67A      0.439771    68A      0.459167  
      69A      0.475934    70A      0.490585    71A      0.520693  
      72A      0.537256    73A      0.582262    74A      0.593396  
      75A      0.597291    76A      0.608442    77A      0.629085  
      78A      0.644849    79A      0.657820    80A      0.662379  
      81A      0.674520    82A      0.681999    83A      0.687956  
      84A      0.696365    85A      0.715228    86A      0.724542  
      87A      0.728761    88A      0.743096    89A      0.751984  
      90A      0.756113    91A      0.764198    92A      0.787446  
      93A      0.800179    94A      0.805486    95A      0.814015  
      96A      0.824585    97A      0.844035    98A      0.855618  
      99A      0.867618   100A      0.870103   101A      0.880408  
     102A      0.882104   103A      0.888794   104A      0.899960  
     105A      0.904148   106A      0.911948   107A      0.926629  
     108A      0.930879   109A      0.936953   110A      0.944416  
     111A      0.950167   112A      0.968705   113A      0.972654  
     114A      0.979678   115A      0.991807   116A      1.033308  
     117A      1.038961   118A      1.059011   119A      1.088024  
     120A      1.093831   121A      1.102488   122A      1.127731  
     123A      1.138932   124A      1.143927   125A      1.163120  
     126A      1.181625   127A      1.193781   128A      1.200618  
     129A      1.214591   130A      1.240247   131A      1.244955  
     132A      1.269841   133A      1.287648   134A      1.315593  
     135A      1.343296   136A      1.361343   137A      1.402565  
     138A      1.406049   139A      1.411357   140A      1.450983  
     141A      1.478410   142A      1.485012   143A      1.514142  
     144A      1.535720   145A      1.554283   146A      1.559145  
     147A      1.582056   148A      1.617322   149A      1.625057  
     150A      1.645746   151A      1.653340   152A      1.673627  
     153A      1.674164   154A      1.683703   155A      1.695430  
     156A      1.739068   157A      1.740970   158A      1.775898  
     159A      1.795051   160A      1.804819   161A      1.837373  
     162A      1.846749   163A      1.852315   164A      1.867174  
     165A      1.880287   166A      1.884605   167A      1.889144  
     168A      1.893020   169A      1.900340   170A      1.907384  
     171A      1.913719   172A      1.925644   173A      1.935891  
     174A      1.948046   175A      1.956225   176A      1.959437  
     177A      1.962338   178A      1.986026   179A      2.000603  
     180A      2.009330   181A      2.016412   182A      2.031255  
     183A      2.056371   184A      2.070454   185A      2.090459  
     186A      2.097701   187A      2.111647   188A      2.118517  
     189A      2.122464   190A      2.138303   191A      2.176136  
     192A      2.192454   193A      2.220207   194A      2.233963  
     195A      2.240885   196A      2.263569   197A      2.293830  
     198A      2.295341   199A      2.305113   200A      2.322547  
     201A      2.335013   202A      2.370223   203A      2.381689  
     204A      2.421563   205A      2.429220   206A      2.443557  
     207A      2.446512   208A      2.466202   209A      2.480569  
     210A      2.531462   211A      2.544401   212A      2.562117  
     213A      2.579795   214A      2.612897   215A      2.625157  
     216A      2.658506   217A      2.669788   218A      2.700158  
     219A      2.742397   220A      2.748234   221A      2.768292  
     222A      2.773389   223A      2.785620   224A      2.793092  
     225A      2.828033   226A      2.839194   227A      2.851243  
     228A      2.858518   229A      2.864462   230A      2.883757  
     231A      2.938178   232A      2.951577   233A      2.960721  
     234A      2.978666   235A      3.023360   236A      3.063185  
     237A      3.102684   238A      3.152564   239A      3.214379  
     240A      3.296710   241A      3.448645   242A      3.770395  
     243A      3.809664  

    Final Occupation by Irrep:
              A 
    DOCC [    44 ]

  @RHF Final Energy:  -479.64749804435542

   => Energetics <=

    Nuclear Repulsion Energy =            663.2172432099075650
    One-Electron Energy =               -1963.7849528056838153
    Two-Electron Energy =                 820.9202115514208344
    Total Energy =                       -479.6474980443554159

Computation Completed


Properties will be evaluated at   0.000000,   0.000000,   0.000000 [a0]

Properties computed using the SCF density matrix

  Nuclear Dipole Moment: [e a0]
     X:     9.8342      Y:    -6.7009      Z:   -11.1052

  Electronic Dipole Moment: [e a0]
     X:    -9.2464      Y:     6.1057      Z:    10.3304

  Dipole Moment: [e a0]
     X:     0.5878      Y:    -0.5952      Z:    -0.7748     Total:     1.1403

  Dipole Moment: [D]
     X:     1.4941      Y:    -1.5129      Z:    -1.9695     Total:     2.8983


*** tstop() called on ds3 at Mon Apr 27 13:06:02 2020
Module time:
	user time   =     213.51 seconds =       3.56 minutes
	system time =      80.91 seconds =       1.35 minutes
	total time  =        324 seconds =       5.40 minutes
Total time:
	user time   =     213.51 seconds =       3.56 minutes
	system time =      80.91 seconds =       1.35 minutes
	total time  =        324 seconds =       5.40 minutes
                                     G D M A

                                 by Anthony Stone

                           version 2.2.06, 22 June 2011

               Distributed Multipoles from Gaussian wavefunctions


Starting at 13:6:2 on 27 Apr 2020   


Using SCF density matrix from file ./SSI/SSI-061ILE-092TRP-1-dimer.test.4946.fchk


                         Distributed Multipole Analysis

Standard DMA

Positions and radii in angstrom
Multipole moments in atomic units, ea_0^k for rank k

C          x =  2.054084  y = -2.563150  z = -2.384796 angstrom
           Maximum rank =  0   Radius =  0.650 angstrom
                   Q00  =  -0.234870

C          x =  1.209084  y = -2.481150  z = -3.648796 angstrom
           Maximum rank =  0   Radius =  0.650 angstrom
                   Q00  =  -0.235669

H          x =  2.753084  y = -3.397150  z = -2.461796 angstrom
           Maximum rank =  0   Radius =  0.325 angstrom
                   Q00  =   0.084240

H          x =  2.625084  y = -1.641150  z = -2.264796 angstrom
           Maximum rank =  0   Radius =  0.325 angstrom
                   Q00  =   0.084207

H          x =  1.448084  y = -2.707150  z = -1.495796 angstrom
           Maximum rank =  0   Radius =  0.325 angstrom
                   Q00  =   0.052380

H          x =  0.663084  y = -1.535150  z = -3.640796 angstrom
           Maximum rank =  0   Radius =  0.325 angstrom
                   Q00  =   0.079181

H          x =  0.480144  y = -3.304949  z = -3.646656 angstrom
           Maximum rank =  0   Radius =  0.325 angstrom
                   Q00  =   0.075120

H          x =  1.821924  y = -2.514643  z = -4.561646 angstrom
           Maximum rank =  0   Radius =  0.325 angstrom
                   Q00  =   0.090813

C          x =  2.173084  y =  1.608850  z =  1.694204 angstrom
           Maximum rank =  0   Radius =  0.650 angstrom
                   Q00  =  -0.210896

C          x =  1.372084  y = -0.498150  z =  0.554204 angstrom
           Maximum rank =  0   Radius =  0.650 angstrom
                   Q00  =   0.051890

C          x =  1.168084  y =  0.719850  z =  1.102204 angstrom
           Maximum rank =  0   Radius =  0.650 angstrom
                   Q00  =  -0.130263

C          x = -0.773916  y = -0.166150  z =  0.351204 angstrom
           Maximum rank =  0   Radius =  0.650 angstrom
                   Q00  =   0.181849

C          x = -0.227916  y =  0.999850  z =  0.973204 angstrom
           Maximum rank =  0   Radius =  0.650 angstrom
                   Q00  =  -0.070618

C          x = -2.064916  y = -0.460150  z = -0.005796 angstrom
           Maximum rank =  0   Radius =  0.650 angstrom
                   Q00  =   0.026477

C          x = -1.081916  y =  2.053850  z =  1.287204 angstrom
           Maximum rank =  0   Radius =  0.650 angstrom
                   Q00  =  -0.050190

C          x = -2.682916  y =  0.664850  z =  0.118204 angstrom
           Maximum rank =  0   Radius =  0.650 angstrom
                   Q00  =  -0.118296

C          x = -2.304916  y =  1.921850  z =  0.797204 angstrom
           Maximum rank =  0   Radius =  0.650 angstrom
                   Q00  =  -0.145650

N          x =  0.239084  y = -1.028150  z =  0.134204 angstrom
           Maximum rank =  0   Radius =  0.650 angstrom
                   Q00  =  -0.424157

H          x =  2.316084  y = -0.831150  z =  0.204204 angstrom
           Maximum rank =  0   Radius =  0.325 angstrom
                   Q00  =   0.094459

H          x =  0.171084  y = -1.899150  z = -0.373796 angstrom
           Maximum rank =  0   Radius =  0.325 angstrom
                   Q00  =   0.209142

H          x =  2.586084  y =  1.142850  z =  2.590204 angstrom
           Maximum rank =  0   Radius =  0.325 angstrom
                   Q00  =   0.102252

H          x =  1.665084  y =  2.525850  z =  1.995204 angstrom
           Maximum rank =  0   Radius =  0.325 angstrom
                   Q00  =   0.101843

H          x = -2.376916  y = -1.309150  z = -0.580796 angstrom
           Maximum rank =  0   Radius =  0.325 angstrom
                   Q00  =   0.075480

H          x = -0.717916  y =  2.984850  z =  1.697204 angstrom
           Maximum rank =  0   Radius =  0.325 angstrom
                   Q00  =   0.076697

H          x = -3.097916  y =  0.675850  z = -0.859796 angstrom
           Maximum rank =  0   Radius =  0.325 angstrom
                   Q00  =   0.064481

H          x = -2.821916  y =  2.813850  z =  0.573204 angstrom
           Maximum rank =  0   Radius =  0.325 angstrom
                   Q00  =   0.075378

H          x =  2.975844  y =  1.845345  z =  0.980314 angstrom
           Maximum rank =  0   Radius =  0.325 angstrom
                   Q00  =   0.094722

Total multipoles referred to origin at
           x =   0.000000,  y =    0.000000,  z =    0.000000 angstrom
                   Q00  =  -0.000000

Finished at 13:6:2 on 27 Apr 2020   

  DMA results are available in the Python driver through the
	  variable('DMA DISTRIBUTED MULTIPOLES')
  and
	  variable('DMA TOTAL MULTIPOLES')
  commands.


    Psi4 stopped on: Monday, 27 April 2020 01:06PM
    Psi4 wall time for execution: 0:05:23.76

*** Psi4 exiting successfully. Buy a developer a beer!
