
    -----------------------------------------------------------------------
          Psi4: An Open-Source Ab Initio Electronic Structure Package
                               Psi4 1.3.2 release

                         Git: Rev {HEAD} ecbda83 


    R. M. Parrish, L. A. Burns, D. G. A. Smith, A. C. Simmonett,
    A. E. DePrince III, E. G. Hohenstein, U. Bozkaya, A. Yu. Sokolov,
    R. Di Remigio, R. M. Richard, J. F. Gonthier, A. M. James,
    H. R. McAlexander, A. Kumar, M. Saitow, X. Wang, B. P. Pritchard,
    P. Verma, H. F. Schaefer III, K. Patkowski, R. A. King, E. F. Valeev,
    F. A. Evangelista, J. M. Turney, T. D. Crawford, and C. D. Sherrill,
    J. Chem. Theory Comput. 13(7) pp 3185--3197 (2017).
    (doi: 10.1021/acs.jctc.7b00174)


                         Additional Contributions by
    P. Kraus, H. Kruse, M. H. Lechner, M. C. Schieber, R. A. Shaw,
    A. Alenaizan, R. Galvelis, Z. L. Glick, S. Lehtola, and J. P. Misiewicz

    -----------------------------------------------------------------------


    Psi4 started on: Tuesday, 28 April 2020 08:18AM

    Process ID: 13308
    Host:       ds3
    PSIDATADIR: /theoryfs2/ds/metcalf/miniconda2/envs/tf2gpu/share/psi4
    Memory:     500.0 MiB
    Threads:    1
    
  ==> Input File <==

--------------------------------------------------------------------------
import numpy as np
set {scf_type pk
basis cc-pvdz
d_convergence 10
gdma_switch   0
gdma_limit    0
gdma_origin   [ 0.0,  0.0,  0.0 ]
}
molecule test {
    units Angstrom
    0 1
    --
    0 1
    C                1.207632489615475    -1.596731594239982    -0.382336427808461
    C                2.597632489615475    -1.946731594239981     0.125663572191539
    H                0.447632489615475    -2.097731594239981     0.214663572191539
    H                1.056632489615474    -0.520731594239981    -0.293336427808461
    H                1.103632489615475    -1.877731594239981    -1.430336427808461
    H                3.286632489615475    -1.253731594239982    -0.343336427808461
    H                2.861732489615475    -2.973873594239981    -0.166276427808461
    H                2.648712489615475    -1.819388594239982     1.217072572191539
    C               -1.444367510384525     1.158268405760018     0.095663572191539
    C               -2.360367510384525     2.382268405760019     0.169663572191539
    H               -1.028367510384526     0.938268405760019     1.079663572191539
    H               -2.005367510384525     0.293268405760019    -0.262336427808461
    H               -0.626367510384526     1.357268405760018    -0.598336427808461
    H               -2.728367510384525     2.577268405760019    -0.840336427808461
    H               -1.788867510384525     3.254202405760019     0.520545572191539
    H               -3.233947510384526     2.157756405760018     0.799304572191539

}
e, wfn = energy('scf', return_wfn=True)
gdma(wfn)
dmavals = variable('DMA DISTRIBUTED MULTIPOLES')
charges = np.array(dmavals)
print(charges)
np.save('SSI-111VAL-125ALA-1-dimer.npy', np.array(charges))--------------------------------------------------------------------------

*** tstart() called on ds3
*** at Tue Apr 28 08:18:53 2020

   => Loading Basis Set <=

    Name: CC-PVDZ
    Role: ORBITAL
    Keyword: BASIS
    atoms 1-2, 9-10  entry C          line   138 file /theoryfs2/ds/metcalf/miniconda2/envs/tf2gpu/share/psi4/basis/cc-pvdz.gbs 
    atoms 3-8, 11-16 entry H          line    22 file /theoryfs2/ds/metcalf/miniconda2/envs/tf2gpu/share/psi4/basis/cc-pvdz.gbs 


         ---------------------------------------------------------
                                   SCF
               by Justin Turney, Rob Parrish, Andy Simmonett
                          and Daniel G. A. Smith
                              RHF Reference
                        1 Threads,    500 MiB Core
         ---------------------------------------------------------

  ==> Geometry <==

    Molecular point group: c1
    Full point group: C1

    Geometry (in Angstrom), charge = 0, multiplicity = 1:

       Center              X                  Y                   Z               Mass       
    ------------   -----------------  -----------------  -----------------  -----------------
         C            1.207632489615    -1.596731594240    -0.382336427808    12.000000000000
         C            2.597632489615    -1.946731594240     0.125663572192    12.000000000000
         H            0.447632489615    -2.097731594240     0.214663572192     1.007825032230
         H            1.056632489615    -0.520731594240    -0.293336427808     1.007825032230
         H            1.103632489615    -1.877731594240    -1.430336427808     1.007825032230
         H            3.286632489615    -1.253731594240    -0.343336427808     1.007825032230
         H            2.861732489615    -2.973873594240    -0.166276427808     1.007825032230
         H            2.648712489615    -1.819388594240     1.217072572192     1.007825032230
         C           -1.444367510385     1.158268405760     0.095663572192    12.000000000000
         C           -2.360367510385     2.382268405760     0.169663572192    12.000000000000
         H           -1.028367510385     0.938268405760     1.079663572192     1.007825032230
         H           -2.005367510385     0.293268405760    -0.262336427808     1.007825032230
         H           -0.626367510385     1.357268405760    -0.598336427808     1.007825032230
         H           -2.728367510385     2.577268405760    -0.840336427808     1.007825032230
         H           -1.788867510385     3.254202405760     0.520545572192     1.007825032230
         H           -3.233947510385     2.157756405760     0.799304572192     1.007825032230

  Running in c1 symmetry.

  Rotational constants: A =      0.85845  B =      0.03750  C =      0.03696 [cm^-1]
  Rotational constants: A =  25735.74915  B =   1124.10276  C =   1108.16701 [MHz]
  Nuclear repulsion =  118.824500271269585

  Charge       = 0
  Multiplicity = 1
  Electrons    = 36
  Nalpha       = 18
  Nbeta        = 18

  ==> Algorithm <==

  SCF Algorithm Type is PK.
  DIIS enabled.
  MOM disabled.
  Fractional occupation disabled.
  Guess Type is SAD.
  Energy threshold   = 1.00e-06
  Density threshold  = 1.00e-10
  Integral threshold = 0.00e+00

  ==> Primary Basis <==

  Basis Set: CC-PVDZ
    Blend: CC-PVDZ
    Number of shells: 60
    Number of basis function: 116
    Number of Cartesian functions: 120
    Spherical Harmonics?: true
    Max angular momentum: 2

  ==> Pre-Iterations <==

   -------------------------------------------------------
    Irrep   Nso     Nmo     Nalpha   Nbeta   Ndocc  Nsocc
   -------------------------------------------------------
     A        116     116       0       0       0       0
   -------------------------------------------------------
    Total     116     116      18      18      18       0
   -------------------------------------------------------

  ==> Integral Setup <==

  Using integral reordering PK algorithm.
  Sizing the integral batches needed.
  Building batch lookup table.
   Calculation information:
      Number of atoms:                  16
      Number of AO shells:              60
      Number of primitives:            148
      Number of atomic orbitals:       120
      Number of basis functions:       116

      Integral cutoff                 1.00e-12
      Number of threads:                 1

	Batch   1 pq = [       0,    6786] index = [             0,23028291] size =     23028291
  Task number: 3
  Buffer size: 11059200
  Buffer per thread: 2
  We computed 1295346 shell quartets total.
  Whereas there are 1675365 unique shell quartets.

  ==> DiskJK: Disk-Based J/K Matrices <==

    J tasked:                  Yes
    K tasked:                  Yes
    wK tasked:                  No
    Memory [MiB]:              375
    Schwarz Cutoff:          1E-12

    OpenMP threads:              1

  Minimum eigenvalue in the overlap matrix is 6.1657971062E-03.
  Using Symmetric Orthogonalization.

  SCF Guess: Superposition of Atomic Densities via on-the-fly atomic UHF.

  ==> Iterations <==

                        Total Energy        Delta E     RMS |[F,P]|

   @RHF iter SAD:  -157.35387095889612   -1.57354e+02   0.00000e+00 
   @RHF iter   1:  -158.30589261038972   -9.52022e-01   4.23031e-03 DIIS
   @RHF iter   2:  -158.43993571458330   -1.34043e-01   1.80660e-03 DIIS
   @RHF iter   3:  -158.46359260419317   -2.36569e-02   3.50369e-04 DIIS
   @RHF iter   4:  -158.46542793300605   -1.83533e-03   3.90560e-05 DIIS
   @RHF iter   5:  -158.46545200516749   -2.40722e-05   6.74224e-06 DIIS
   @RHF iter   6:  -158.46545267913882   -6.73971e-07   1.09329e-06 DIIS
   @RHF iter   7:  -158.46545269085618   -1.17174e-08   3.21286e-07 DIIS
   @RHF iter   8:  -158.46545269177366   -9.17481e-10   3.99602e-08 DIIS
   @RHF iter   9:  -158.46545269180015   -2.64890e-11   7.25191e-09 DIIS
   @RHF iter  10:  -158.46545269180083   -6.82121e-13   1.98556e-09 DIIS
   @RHF iter  11:  -158.46545269180112   -2.84217e-13   5.04655e-10 DIIS
   @RHF iter  12:  -158.46545269180100    1.13687e-13   1.32728e-10 DIIS
   @RHF iter  13:  -158.46545269180118   -1.70530e-13   2.66809e-11 DIIS
  Energy and wave function converged.


  ==> Post-Iterations <==

    Orbital Energies [Eh]
    ---------------------

    Doubly Occupied:                                                      

       1A    -11.219663     2A    -11.216983     3A    -11.216829  
       4A    -11.213853     5A     -1.020053     6A     -1.017735  
       7A     -0.836960     8A     -0.832028     9A     -0.601758  
      10A     -0.599834    11A     -0.597960    12A     -0.595809  
      13A     -0.502675    14A     -0.494869    15A     -0.490080  
      16A     -0.485041    17A     -0.483015    18A     -0.479729  

    Virtual:                                                              

      19A      0.176556    20A      0.193018    21A      0.221882  
      22A      0.237726    23A      0.246024    24A      0.256542  
      25A      0.265410    26A      0.276128    27A      0.282328  
      28A      0.285953    29A      0.293721    30A      0.329718  
      31A      0.384892    32A      0.411812    33A      0.569675  
      34A      0.594838    35A      0.601591    36A      0.604927  
      37A      0.605438    38A      0.649681    39A      0.667351  
      40A      0.684414    41A      0.699240    42A      0.735920  
      43A      0.839029    44A      0.885257    45A      0.889805  
      46A      0.892706    47A      0.893697    48A      0.895110  
      49A      0.906144    50A      0.908360    51A      0.910273  
      52A      0.917367    53A      0.924018    54A      0.936639  
      55A      0.956535    56A      1.007987    57A      1.121815  
      58A      1.124138    59A      1.128433    60A      1.137872  
      61A      1.226798    62A      1.247399    63A      1.474474  
      64A      1.478265    65A      1.482114    66A      1.490446  
      67A      1.573994    68A      1.590561    69A      1.673294  
      70A      1.679251    71A      1.691472    72A      1.694945  
      73A      1.849798    74A      1.853764    75A      1.856233  
      76A      1.876200    77A      1.885787    78A      1.923758  
      79A      1.934489    80A      1.940241    81A      1.940566  
      82A      1.948890    83A      1.953524    84A      1.959119  
      85A      1.961727    86A      1.968323    87A      1.973555  
      88A      2.038933    89A      2.094610    90A      2.116303  
      91A      2.126355    92A      2.146470    93A      2.284994  
      94A      2.297914    95A      2.312895    96A      2.335580  
      97A      2.439408    98A      2.445067    99A      2.464287  
     100A      2.477953   101A      2.560919   102A      2.570682  
     103A      2.577686   104A      2.589332   105A      2.755848  
     106A      2.770220   107A      2.783246   108A      2.795910  
     109A      2.830116   110A      2.841303   111A      2.849550  
     112A      2.855625   113A      2.934670   114A      2.946589  
     115A      2.959993   116A      2.965228  

    Final Occupation by Irrep:
              A 
    DOCC [    18 ]

  @RHF Final Energy:  -158.46545269180118

   => Energetics <=

    Nuclear Repulsion Energy =            118.8245002712695850
    One-Electron Energy =                -446.7701587836923522
    Two-Electron Energy =                 169.4802058206215918
    Total Energy =                       -158.4654526918011754

Computation Completed


Properties will be evaluated at   0.000000,   0.000000,   0.000000 [a0]

Properties computed using the SCF density matrix

  Nuclear Dipole Moment: [e a0]
     X:    -0.0059      Y:     0.0327      Z:    -0.0966

  Electronic Dipole Moment: [e a0]
     X:    -0.0031      Y:    -0.0200      Z:     0.0781

  Dipole Moment: [e a0]
     X:    -0.0090      Y:     0.0126      Z:    -0.0185     Total:     0.0242

  Dipole Moment: [D]
     X:    -0.0229      Y:     0.0321      Z:    -0.0471     Total:     0.0615


*** tstop() called on ds3 at Tue Apr 28 08:19:04 2020
Module time:
	user time   =       6.65 seconds =       0.11 minutes
	system time =       2.83 seconds =       0.05 minutes
	total time  =         11 seconds =       0.18 minutes
Total time:
	user time   =       6.65 seconds =       0.11 minutes
	system time =       2.83 seconds =       0.05 minutes
	total time  =         11 seconds =       0.18 minutes
                                     G D M A

                                 by Anthony Stone

                           version 2.2.06, 22 June 2011

               Distributed Multipoles from Gaussian wavefunctions


Starting at 8:19:4 on 28 Apr 2020   


Using SCF density matrix from file ./SSI/SSI-111VAL-125ALA-1-dimer.test.13308.fchk


                         Distributed Multipole Analysis

Standard DMA

Positions and radii in angstrom
Multipole moments in atomic units, ea_0^k for rank k

C          x =  1.207632  y = -1.596732  z = -0.382336 angstrom
           Maximum rank =  0   Radius =  0.650 angstrom
                   Q00  =  -0.229520

C          x =  2.597632  y = -1.946732  z =  0.125664 angstrom
           Maximum rank =  0   Radius =  0.650 angstrom
                   Q00  =  -0.238382

H          x =  0.447632  y = -2.097732  z =  0.214664 angstrom
           Maximum rank =  0   Radius =  0.325 angstrom
                   Q00  =   0.077209

H          x =  1.056632  y = -0.520732  z = -0.293336 angstrom
           Maximum rank =  0   Radius =  0.325 angstrom
                   Q00  =   0.079620

H          x =  1.103632  y = -1.877732  z = -1.430336 angstrom
           Maximum rank =  0   Radius =  0.325 angstrom
                   Q00  =   0.078234

H          x =  3.286632  y = -1.253732  z = -0.343336 angstrom
           Maximum rank =  0   Radius =  0.325 angstrom
                   Q00  =   0.075927

H          x =  2.861732  y = -2.973874  z = -0.166276 angstrom
           Maximum rank =  0   Radius =  0.325 angstrom
                   Q00  =   0.077593

H          x =  2.648712  y = -1.819389  z =  1.217073 angstrom
           Maximum rank =  0   Radius =  0.325 angstrom
                   Q00  =   0.078622

C          x = -1.444368  y =  1.158268  z =  0.095664 angstrom
           Maximum rank =  0   Radius =  0.650 angstrom
                   Q00  =  -0.237766

C          x = -2.360368  y =  2.382268  z =  0.169664 angstrom
           Maximum rank =  0   Radius =  0.650 angstrom
                   Q00  =  -0.234550

H          x = -1.028368  y =  0.938268  z =  1.079664 angstrom
           Maximum rank =  0   Radius =  0.325 angstrom
                   Q00  =   0.077284

H          x = -2.005368  y =  0.293268  z = -0.262336 angstrom
           Maximum rank =  0   Radius =  0.325 angstrom
                   Q00  =   0.080881

H          x = -0.626368  y =  1.357268  z = -0.598336 angstrom
           Maximum rank =  0   Radius =  0.325 angstrom
                   Q00  =   0.076526

H          x = -2.728368  y =  2.577268  z = -0.840336 angstrom
           Maximum rank =  0   Radius =  0.325 angstrom
                   Q00  =   0.076886

H          x = -1.788868  y =  3.254202  z =  0.520546 angstrom
           Maximum rank =  0   Radius =  0.325 angstrom
                   Q00  =   0.081086

H          x = -3.233948  y =  2.157756  z =  0.799305 angstrom
           Maximum rank =  0   Radius =  0.325 angstrom
                   Q00  =   0.080351

Total multipoles referred to origin at
           x =   0.000000,  y =    0.000000,  z =    0.000000 angstrom
                   Q00  =  -0.000000

Finished at 8:19:4 on 28 Apr 2020   

  DMA results are available in the Python driver through the
	  variable('DMA DISTRIBUTED MULTIPOLES')
  and
	  variable('DMA TOTAL MULTIPOLES')
  commands.


    Psi4 stopped on: Tuesday, 28 April 2020 08:19AM
    Psi4 wall time for execution: 0:00:11.19

*** Psi4 exiting successfully. Buy a developer a beer!
