
    -----------------------------------------------------------------------
          Psi4: An Open-Source Ab Initio Electronic Structure Package
                               Psi4 1.3.2 release

                         Git: Rev {HEAD} ecbda83 


    R. M. Parrish, L. A. Burns, D. G. A. Smith, A. C. Simmonett,
    A. E. DePrince III, E. G. Hohenstein, U. Bozkaya, A. Yu. Sokolov,
    R. Di Remigio, R. M. Richard, J. F. Gonthier, A. M. James,
    H. R. McAlexander, A. Kumar, M. Saitow, X. Wang, B. P. Pritchard,
    P. Verma, H. F. Schaefer III, K. Patkowski, R. A. King, E. F. Valeev,
    F. A. Evangelista, J. M. Turney, T. D. Crawford, and C. D. Sherrill,
    J. Chem. Theory Comput. 13(7) pp 3185--3197 (2017).
    (doi: 10.1021/acs.jctc.7b00174)


                         Additional Contributions by
    P. Kraus, H. Kruse, M. H. Lechner, M. C. Schieber, R. A. Shaw,
    A. Alenaizan, R. Galvelis, Z. L. Glick, S. Lehtola, and J. P. Misiewicz

    -----------------------------------------------------------------------


    Psi4 started on: Monday, 27 April 2020 04:29PM

    Process ID: 26996
    Host:       ds3
    PSIDATADIR: /theoryfs2/ds/metcalf/miniconda2/envs/tf2gpu/share/psi4
    Memory:     500.0 MiB
    Threads:    1
    
  ==> Input File <==

--------------------------------------------------------------------------
import numpy as np
set {scf_type pk
basis cc-pvdz
d_convergence 10
gdma_switch   0
gdma_limit    0
gdma_origin   [ 0.0,  0.0,  0.0 ]
}
molecule test {
    units Angstrom
    -1 1
    --
    -1 1
    C               -1.192634941964535    -0.907511900586168     0.378439118874588
    C               -0.122634941964534    -2.016511900586168     0.368439118874588
    C               -0.795634941964534     0.264488099413832     1.243439118874589
    O                0.216365058035466     0.901488099413832     0.918439118874589
    O               -1.448634941964535     0.525488099413832     2.284439118874589
    H               -1.365634941964534    -0.548511900586168    -0.637560881125412
    H               -2.112634941964535    -1.324511900586168     0.762439118874588
    H                0.864365058035466    -1.561511900586168     0.283439118874588
    H               -0.275980941964534    -2.694225900586168    -0.484310881125412
    H               -0.166055941964534    -2.549872900586168     1.329499118874589
    C                1.250365058035465    -0.077511900586168    -2.457560881125412
    C                1.958365058035465     1.265488099413832    -2.625560881125411
    H                0.920365058035466    -0.188511900586168    -1.430560881125412
    H                0.369365058035466    -0.118511900586168    -3.099560881125412
    H                1.921365058035465    -0.896511900586168    -2.717560881125411
    H                1.269365058035466     2.063488099413832    -2.350560881125412
    H                2.843665058035465     1.306566099413832    -1.973980881125412
    H                2.217216058035465     1.386575099413832    -3.687790881125412

}
e, wfn = energy('scf', return_wfn=True)
gdma(wfn)
dmavals = variable('DMA DISTRIBUTED MULTIPOLES')
charges = np.array(dmavals)
print(charges)
np.save('SSI-136ASP-201VAL-1-dimer.npy', np.array(charges))--------------------------------------------------------------------------

*** tstart() called on ds3
*** at Mon Apr 27 16:29:49 2020

   => Loading Basis Set <=

    Name: CC-PVDZ
    Role: ORBITAL
    Keyword: BASIS
    atoms 1-3, 11-12  entry C          line   138 file /theoryfs2/ds/metcalf/miniconda2/envs/tf2gpu/share/psi4/basis/cc-pvdz.gbs 
    atoms 4-5         entry O          line   198 file /theoryfs2/ds/metcalf/miniconda2/envs/tf2gpu/share/psi4/basis/cc-pvdz.gbs 
    atoms 6-10, 13-18 entry H          line    22 file /theoryfs2/ds/metcalf/miniconda2/envs/tf2gpu/share/psi4/basis/cc-pvdz.gbs 


         ---------------------------------------------------------
                                   SCF
               by Justin Turney, Rob Parrish, Andy Simmonett
                          and Daniel G. A. Smith
                              RHF Reference
                        1 Threads,    500 MiB Core
         ---------------------------------------------------------

  ==> Geometry <==

    Molecular point group: c1
    Full point group: C1

    Geometry (in Angstrom), charge = -1, multiplicity = 1:

       Center              X                  Y                   Z               Mass       
    ------------   -----------------  -----------------  -----------------  -----------------
         C           -1.192634941965    -0.907511900586     0.378439118875    12.000000000000
         C           -0.122634941965    -2.016511900586     0.368439118875    12.000000000000
         C           -0.795634941965     0.264488099414     1.243439118875    12.000000000000
         O            0.216365058035     0.901488099414     0.918439118875    15.994914619570
         O           -1.448634941965     0.525488099414     2.284439118875    15.994914619570
         H           -1.365634941965    -0.548511900586    -0.637560881125     1.007825032230
         H           -2.112634941965    -1.324511900586     0.762439118875     1.007825032230
         H            0.864365058035    -1.561511900586     0.283439118875     1.007825032230
         H           -0.275980941965    -2.694225900586    -0.484310881125     1.007825032230
         H           -0.166055941965    -2.549872900586     1.329499118875     1.007825032230
         C            1.250365058035    -0.077511900586    -2.457560881125    12.000000000000
         C            1.958365058035     1.265488099414    -2.625560881125    12.000000000000
         H            0.920365058035    -0.188511900586    -1.430560881125     1.007825032230
         H            0.369365058035    -0.118511900586    -3.099560881125     1.007825032230
         H            1.921365058035    -0.896511900586    -2.717560881125     1.007825032230
         H            1.269365058035     2.063488099414    -2.350560881125     1.007825032230
         H            2.843665058035     1.306566099414    -1.973980881125     1.007825032230
         H            2.217216058035     1.386575099414    -3.687790881125     1.007825032230

  Running in c1 symmetry.

  Rotational constants: A =      0.11816  B =      0.03573  C =      0.02944 [cm^-1]
  Rotational constants: A =   3542.39274  B =   1071.09731  C =    882.46076 [MHz]
  Nuclear repulsion =  295.945280257304205

  Charge       = -1
  Multiplicity = 1
  Electrons    = 58
  Nalpha       = 29
  Nbeta        = 29

  ==> Algorithm <==

  SCF Algorithm Type is PK.
  DIIS enabled.
  MOM disabled.
  Fractional occupation disabled.
  Guess Type is SAD.
  Energy threshold   = 1.00e-06
  Density threshold  = 1.00e-10
  Integral threshold = 0.00e+00

  ==> Primary Basis <==

  Basis Set: CC-PVDZ
    Blend: CC-PVDZ
    Number of shells: 75
    Number of basis function: 153
    Number of Cartesian functions: 160
    Spherical Harmonics?: true
    Max angular momentum: 2

  ==> Pre-Iterations <==

   -------------------------------------------------------
    Irrep   Nso     Nmo     Nalpha   Nbeta   Ndocc  Nsocc
   -------------------------------------------------------
     A        153     153       0       0       0       0
   -------------------------------------------------------
    Total     153     153      29      29      29       0
   -------------------------------------------------------

  ==> Integral Setup <==

  Using integral reordering PK algorithm.
  Sizing the integral batches needed.
  Building batch lookup table.
   Calculation information:
      Number of atoms:                  18
      Number of AO shells:              75
      Number of primitives:            209
      Number of atomic orbitals:       160
      Number of basis functions:       153

      Integral cutoff                 1.00e-12
      Number of threads:                 1

	Batch   1 pq = [       0,    9405] index = [             0,44231715] size =     44231715
	Batch   2 pq = [    9405,   11781] index = [      44231715,69401871] size =     25170156
  Task number: 7
  Buffer size: 11059200
  Buffer per thread: 2
  We computed 3646205 shell quartets total.
  Whereas there are 4062675 unique shell quartets.

  ==> DiskJK: Disk-Based J/K Matrices <==

    J tasked:                  Yes
    K tasked:                  Yes
    wK tasked:                  No
    Memory [MiB]:              375
    Schwarz Cutoff:          1E-12

    OpenMP threads:              1

  Minimum eigenvalue in the overlap matrix is 4.2103219586E-03.
  Using Symmetric Orthogonalization.

  SCF Guess: Superposition of Atomic Densities via on-the-fly atomic UHF.

  ==> Iterations <==

                        Total Energy        Delta E     RMS |[F,P]|

   @RHF iter SAD:  -343.91051699311055   -3.43911e+02   0.00000e+00 
   @RHF iter   1:  -345.22301752592273   -1.31250e+00   4.89013e-03 DIIS
   @RHF iter   2:  -345.44413694044908   -2.21119e-01   2.69168e-03 DIIS
   @RHF iter   3:  -345.50785088825944   -6.37139e-02   4.19541e-04 DIIS
   @RHF iter   4:  -345.51077971223771   -2.92882e-03   1.65188e-04 DIIS
   @RHF iter   5:  -345.51120254086766   -4.22829e-04   2.36873e-05 DIIS
   @RHF iter   6:  -345.51121569310396   -1.31522e-05   5.11073e-06 DIIS
   @RHF iter   7:  -345.51121627165338   -5.78549e-07   1.69750e-06 DIIS
   @RHF iter   8:  -345.51121633397543   -6.23220e-08   7.53344e-07 DIIS
   @RHF iter   9:  -345.51121634422429   -1.02489e-08   2.73472e-07 DIIS
   @RHF iter  10:  -345.51121634688059   -2.65629e-09   1.17262e-07 DIIS
   @RHF iter  11:  -345.51121634735767   -4.77087e-10   2.96452e-08 DIIS
   @RHF iter  12:  -345.51121634739786   -4.01883e-11   9.21291e-09 DIIS
   @RHF iter  13:  -345.51121634739962   -1.76215e-12   2.94620e-09 DIIS
   @RHF iter  14:  -345.51121634740173   -2.10321e-12   8.55020e-10 DIIS
   @RHF iter  15:  -345.51121634739866    3.06954e-12   3.17292e-10 DIIS
   @RHF iter  16:  -345.51121634740093   -2.27374e-12   1.19618e-10 DIIS
   @RHF iter  17:  -345.51121634740252   -1.59162e-12   5.15521e-11 DIIS
  Energy and wave function converged.


  ==> Post-Iterations <==

    Orbital Energies [Eh]
    ---------------------

    Doubly Occupied:                                                      

       1A    -20.260887     2A    -20.255146     3A    -11.110408  
       4A    -11.107481     5A    -11.094351     6A    -11.079219  
       7A    -11.051152     8A     -1.152359     9A     -1.034691  
      10A     -0.902654    11A     -0.872307    12A     -0.720251  
      13A     -0.706322    14A     -0.508965    15A     -0.485448  
      16A     -0.483118    17A     -0.457723    18A     -0.431150  
      19A     -0.387854    20A     -0.382730    21A     -0.374224  
      22A     -0.370785    23A     -0.365650    24A     -0.359976  
      25A     -0.324338    26A     -0.299454    27A     -0.181873  
      28A     -0.169395    29A     -0.159444  

    Virtual:                                                              

      30A      0.293103    31A      0.321376    32A      0.350311  
      33A      0.359623    34A      0.367490    35A      0.385577  
      36A      0.390620    37A      0.400510    38A      0.428384  
      39A      0.440050    40A      0.463685    41A      0.481206  
      42A      0.518993    43A      0.550140    44A      0.617940  
      45A      0.672684    46A      0.698850    47A      0.716126  
      48A      0.721899    49A      0.745906    50A      0.776116  
      51A      0.781461    52A      0.825338    53A      0.833465  
      54A      0.894021    55A      0.955191    56A      0.966362  
      57A      0.984425    58A      0.995979    59A      1.003137  
      60A      1.009140    61A      1.012375    62A      1.017340  
      63A      1.022876    64A      1.034395    65A      1.049544  
      66A      1.058599    67A      1.072427    68A      1.088407  
      69A      1.104646    70A      1.123527    71A      1.143213  
      72A      1.190580    73A      1.245850    74A      1.254949  
      75A      1.265892    76A      1.304157    77A      1.309479  
      78A      1.372015    79A      1.418922    80A      1.505563  
      81A      1.525700    82A      1.554013    83A      1.590561  
      84A      1.604267    85A      1.622584    86A      1.651121  
      87A      1.669402    88A      1.679922    89A      1.692805  
      90A      1.717087    91A      1.770081    92A      1.787743  
      93A      1.815050    94A      1.841610    95A      1.869318  
      96A      1.968674    97A      1.973329    98A      1.990493  
      99A      2.002964   100A      2.036200   101A      2.050306  
     102A      2.058114   103A      2.062693   104A      2.067145  
     105A      2.078725   106A      2.084311   107A      2.101651  
     108A      2.117324   109A      2.137991   110A      2.156159  
     111A      2.158397   112A      2.195609   113A      2.211746  
     114A      2.233670   115A      2.249071   116A      2.320199  
     117A      2.363500   118A      2.373930   119A      2.405767  
     120A      2.431728   121A      2.436165   122A      2.488101  
     123A      2.556305   124A      2.578633   125A      2.592968  
     126A      2.635316   127A      2.670123   128A      2.684259  
     129A      2.701494   130A      2.750514   131A      2.753839  
     132A      2.840540   133A      2.879320   134A      2.910353  
     135A      2.920076   136A      2.961803   137A      2.967597  
     138A      2.985819   139A      3.000055   140A      3.048171  
     141A      3.074948   142A      3.140948   143A      3.148424  
     144A      3.246652   145A      3.291334   146A      3.303542  
     147A      3.372700   148A      3.647364   149A      3.783841  
     150A      3.837617   151A      4.059501   152A      4.115080  
     153A      4.213389  

    Final Occupation by Irrep:
              A 
    DOCC [    29 ]

  @RHF Final Energy:  -345.51121634740252

   => Energetics <=

    Nuclear Repulsion Energy =            295.9452802573042050
    One-Electron Energy =               -1068.7342830811298882
    Two-Electron Energy =                 427.2777864764232163
    Total Energy =                       -345.5112163474025238

Computation Completed


Properties will be evaluated at   0.000000,   0.000000,   0.000000 [a0]

Properties computed using the SCF density matrix

  Nuclear Dipole Moment: [e a0]
     X:     6.0739      Y:    -4.7982      Z:   -13.1153

  Electronic Dipole Moment: [e a0]
     X:    -5.2019      Y:     3.4683      Z:    10.3874

  Dipole Moment: [e a0]
     X:     0.8721      Y:    -1.3298      Z:    -2.7279     Total:     3.1576

  Dipole Moment: [D]
     X:     2.2165      Y:    -3.3801      Z:    -6.9337     Total:     8.0259


*** tstop() called on ds3 at Mon Apr 27 16:30:41 2020
Module time:
	user time   =      40.06 seconds =       0.67 minutes
	system time =      14.08 seconds =       0.23 minutes
	total time  =         52 seconds =       0.87 minutes
Total time:
	user time   =      40.06 seconds =       0.67 minutes
	system time =      14.08 seconds =       0.23 minutes
	total time  =         52 seconds =       0.87 minutes
                                     G D M A

                                 by Anthony Stone

                           version 2.2.06, 22 June 2011

               Distributed Multipoles from Gaussian wavefunctions


Starting at 16:30:42 on 27 Apr 2020 


Using SCF density matrix from file ./SSI/SSI-136ASP-201VAL-1-dimer.test.26996.fchk


                         Distributed Multipole Analysis

Standard DMA

Positions and radii in angstrom
Multipole moments in atomic units, ea_0^k for rank k

C          x = -1.192635  y = -0.907512  z =  0.378439 angstrom
           Maximum rank =  0   Radius =  0.650 angstrom
                   Q00  =  -0.120281

C          x = -0.122635  y = -2.016512  z =  0.368439 angstrom
           Maximum rank =  0   Radius =  0.650 angstrom
                   Q00  =  -0.214324

C          x = -0.795635  y =  0.264488  z =  1.243439 angstrom
           Maximum rank =  0   Radius =  0.650 angstrom
                   Q00  =   1.000066

O          x =  0.216365  y =  0.901488  z =  0.918439 angstrom
           Maximum rank =  0   Radius =  0.650 angstrom
                   Q00  =  -0.949736

O          x = -1.448635  y =  0.525488  z =  2.284439 angstrom
           Maximum rank =  0   Radius =  0.650 angstrom
                   Q00  =  -0.945700

H          x = -1.365635  y = -0.548512  z = -0.637561 angstrom
           Maximum rank =  0   Radius =  0.325 angstrom
                   Q00  =   0.036325

H          x = -2.112635  y = -1.324512  z =  0.762439 angstrom
           Maximum rank =  0   Radius =  0.325 angstrom
                   Q00  =   0.023769

H          x =  0.864365  y = -1.561512  z =  0.283439 angstrom
           Maximum rank =  0   Radius =  0.325 angstrom
                   Q00  =   0.093071

H          x = -0.275981  y = -2.694226  z = -0.484311 angstrom
           Maximum rank =  0   Radius =  0.325 angstrom
                   Q00  =   0.034131

H          x = -0.166056  y = -2.549873  z =  1.329499 angstrom
           Maximum rank =  0   Radius =  0.325 angstrom
                   Q00  =   0.058390

C          x =  1.250365  y = -0.077512  z = -2.457561 angstrom
           Maximum rank =  0   Radius =  0.650 angstrom
                   Q00  =  -0.184364

C          x =  1.958365  y =  1.265488  z = -2.625561 angstrom
           Maximum rank =  0   Radius =  0.650 angstrom
                   Q00  =  -0.233990

H          x =  0.920365  y = -0.188512  z = -1.430561 angstrom
           Maximum rank =  0   Radius =  0.325 angstrom
                   Q00  =   0.094711

H          x =  0.369365  y = -0.118512  z = -3.099561 angstrom
           Maximum rank =  0   Radius =  0.325 angstrom
                   Q00  =   0.053582

H          x =  1.921365  y = -0.896512  z = -2.717561 angstrom
           Maximum rank =  0   Radius =  0.325 angstrom
                   Q00  =   0.044497

H          x =  1.269365  y =  2.063488  z = -2.350561 angstrom
           Maximum rank =  0   Radius =  0.325 angstrom
                   Q00  =   0.094886

H          x =  2.843665  y =  1.306566  z = -1.973981 angstrom
           Maximum rank =  0   Radius =  0.325 angstrom
                   Q00  =   0.081739

H          x =  2.217216  y =  1.386575  z = -3.687791 angstrom
           Maximum rank =  0   Radius =  0.325 angstrom
                   Q00  =   0.033228

Total multipoles referred to origin at
           x =   0.000000,  y =    0.000000,  z =    0.000000 angstrom
                   Q00  =  -1.000000

Finished at 16:30:42 on 27 Apr 2020 

  DMA results are available in the Python driver through the
	  variable('DMA DISTRIBUTED MULTIPOLES')
  and
	  variable('DMA TOTAL MULTIPOLES')
  commands.


    Psi4 stopped on: Monday, 27 April 2020 04:30PM
    Psi4 wall time for execution: 0:00:52.72

*** Psi4 exiting successfully. Buy a developer a beer!
