
    -----------------------------------------------------------------------
          Psi4: An Open-Source Ab Initio Electronic Structure Package
                               Psi4 1.3.2 release

                         Git: Rev {HEAD} ecbda83 


    R. M. Parrish, L. A. Burns, D. G. A. Smith, A. C. Simmonett,
    A. E. DePrince III, E. G. Hohenstein, U. Bozkaya, A. Yu. Sokolov,
    R. Di Remigio, R. M. Richard, J. F. Gonthier, A. M. James,
    H. R. McAlexander, A. Kumar, M. Saitow, X. Wang, B. P. Pritchard,
    P. Verma, H. F. Schaefer III, K. Patkowski, R. A. King, E. F. Valeev,
    F. A. Evangelista, J. M. Turney, T. D. Crawford, and C. D. Sherrill,
    J. Chem. Theory Comput. 13(7) pp 3185--3197 (2017).
    (doi: 10.1021/acs.jctc.7b00174)


                         Additional Contributions by
    P. Kraus, H. Kruse, M. H. Lechner, M. C. Schieber, R. A. Shaw,
    A. Alenaizan, R. Galvelis, Z. L. Glick, S. Lehtola, and J. P. Misiewicz

    -----------------------------------------------------------------------


    Psi4 started on: Monday, 27 April 2020 07:15AM

    Process ID: 26890
    Host:       ds3
    PSIDATADIR: /theoryfs2/ds/metcalf/miniconda2/envs/tf2gpu/share/psi4
    Memory:     500.0 MiB
    Threads:    1
    
  ==> Input File <==

--------------------------------------------------------------------------
import numpy as np
set {scf_type pk
basis cc-pvdz
d_convergence 10
gdma_switch   0
gdma_limit    0
gdma_origin   [ 0.0,  0.0,  0.0 ]
}
molecule test {
    units Angstrom
    0 1
    --
    0 1
    C               -0.818445278949156    -2.746573374901406    -1.719072132666108
    C                0.379554721050844    -1.852573374901406    -1.660072132666108
    C                0.740554721050844    -0.818573374901406    -2.462072132666108
    C                2.382554721050844    -1.186573374901406    -1.042072132666108
    N                1.433554721050844    -2.079573374901406    -0.793072132666108
    N                1.986554721050844    -0.404573374901406    -2.038072132666108
    H               -1.633445278949156    -2.253573374901406    -2.250072132666109
    H               -1.145445278949156    -2.935573374901406    -0.696072132666108
    H                0.164554721050844    -0.399573374901406    -3.271072132666109
    H                3.334554721050844    -1.114573374901406    -0.526072132666108
    H                2.542554721050844     0.342426625098594    -2.441072132666108
    H               -0.566675278949156    -3.704613374901406    -2.197372132666108
    C               -2.863445278949156     2.183426625098594     2.639927867333892
    C               -0.153445278949156     0.434426625098594     0.961927867333892
    C               -1.599445278949156     1.769426625098594     1.944927867333892
    C               -0.483445278949156     2.489426625098594     1.650927867333892
    N               -1.362445278949156     0.488426625098594     1.510927867333892
    N                0.408554721050844     1.634426625098594     1.032927867333892
    H                0.318554721050844    -0.460573374901406     0.596927867333892
    H                1.358554721050844     1.849426625098594     0.751927867333892
    H               -0.324445278949156     3.534426625098594     1.883927867333892
    H               -3.720445278949156     1.896426625098594     2.038927867333892
    H               -2.861445278949156     3.272426625098594     2.712927867333891
    H               -2.971695278949156     1.749710625098594     3.645000867333891

}
e, wfn = energy('scf', return_wfn=True)
gdma(wfn)
dmavals = variable('DMA DISTRIBUTED MULTIPOLES')
charges = np.array(dmavals)
print(charges)
np.save('SSI-013HIE-095HIE-1-dimer.npy', np.array(charges))--------------------------------------------------------------------------

*** tstart() called on ds3
*** at Mon Apr 27 07:15:52 2020

   => Loading Basis Set <=

    Name: CC-PVDZ
    Role: ORBITAL
    Keyword: BASIS
    atoms 1-4, 13-16  entry C          line   138 file /theoryfs2/ds/metcalf/miniconda2/envs/tf2gpu/share/psi4/basis/cc-pvdz.gbs 
    atoms 5-6, 17-18  entry N          line   168 file /theoryfs2/ds/metcalf/miniconda2/envs/tf2gpu/share/psi4/basis/cc-pvdz.gbs 
    atoms 7-12, 19-24 entry H          line    22 file /theoryfs2/ds/metcalf/miniconda2/envs/tf2gpu/share/psi4/basis/cc-pvdz.gbs 


         ---------------------------------------------------------
                                   SCF
               by Justin Turney, Rob Parrish, Andy Simmonett
                          and Daniel G. A. Smith
                              RHF Reference
                        1 Threads,    500 MiB Core
         ---------------------------------------------------------

  ==> Geometry <==

    Molecular point group: c1
    Full point group: C1

    Geometry (in Angstrom), charge = 0, multiplicity = 1:

       Center              X                  Y                   Z               Mass       
    ------------   -----------------  -----------------  -----------------  -----------------
         C           -0.818445278949    -2.746573374901    -1.719072132666    12.000000000000
         C            0.379554721051    -1.852573374901    -1.660072132666    12.000000000000
         C            0.740554721051    -0.818573374901    -2.462072132666    12.000000000000
         C            2.382554721051    -1.186573374901    -1.042072132666    12.000000000000
         N            1.433554721051    -2.079573374901    -0.793072132666    14.003074004430
         N            1.986554721051    -0.404573374901    -2.038072132666    14.003074004430
         H           -1.633445278949    -2.253573374901    -2.250072132666     1.007825032230
         H           -1.145445278949    -2.935573374901    -0.696072132666     1.007825032230
         H            0.164554721051    -0.399573374901    -3.271072132666     1.007825032230
         H            3.334554721051    -1.114573374901    -0.526072132666     1.007825032230
         H            2.542554721051     0.342426625099    -2.441072132666     1.007825032230
         H           -0.566675278949    -3.704613374901    -2.197372132666     1.007825032230
         C           -2.863445278949     2.183426625099     2.639927867334    12.000000000000
         C           -0.153445278949     0.434426625099     0.961927867334    12.000000000000
         C           -1.599445278949     1.769426625099     1.944927867334    12.000000000000
         C           -0.483445278949     2.489426625099     1.650927867334    12.000000000000
         N           -1.362445278949     0.488426625099     1.510927867334    14.003074004430
         N            0.408554721051     1.634426625099     1.032927867334    14.003074004430
         H            0.318554721051    -0.460573374901     0.596927867334     1.007825032230
         H            1.358554721051     1.849426625099     0.751927867334     1.007825032230
         H           -0.324445278949     3.534426625099     1.883927867334     1.007825032230
         H           -3.720445278949     1.896426625099     2.038927867334     1.007825032230
         H           -2.861445278949     3.272426625099     2.712927867334     1.007825032230
         H           -2.971695278949     1.749710625099     3.645000867334     1.007825032230

  Running in c1 symmetry.

  Rotational constants: A =      0.06019  B =      0.01455  C =      0.01282 [cm^-1]
  Rotational constants: A =   1804.52049  B =    436.30125  C =    384.20512 [MHz]
  Nuclear repulsion =  653.770502214072962

  Charge       = 0
  Multiplicity = 1
  Electrons    = 88
  Nalpha       = 44
  Nbeta        = 44

  ==> Algorithm <==

  SCF Algorithm Type is PK.
  DIIS enabled.
  MOM disabled.
  Fractional occupation disabled.
  Guess Type is SAD.
  Energy threshold   = 1.00e-06
  Density threshold  = 1.00e-10
  Integral threshold = 0.00e+00

  ==> Primary Basis <==

  Basis Set: CC-PVDZ
    Blend: CC-PVDZ
    Number of shells: 108
    Number of basis function: 228
    Number of Cartesian functions: 240
    Spherical Harmonics?: true
    Max angular momentum: 2

  ==> Pre-Iterations <==

   -------------------------------------------------------
    Irrep   Nso     Nmo     Nalpha   Nbeta   Ndocc  Nsocc
   -------------------------------------------------------
     A        228     228       0       0       0       0
   -------------------------------------------------------
    Total     228     228      44      44      44       0
   -------------------------------------------------------

  ==> Integral Setup <==

  Using integral reordering PK algorithm.
  Sizing the integral batches needed.
  Building batch lookup table.
   Calculation information:
      Number of atoms:                  24
      Number of AO shells:             108
      Number of primitives:            324
      Number of atomic orbitals:       240
      Number of basis functions:       228

      Integral cutoff                 1.00e-12
      Number of threads:                 1

	Batch   1 pq = [       0,    9405] index = [             0,44231715] size =     44231715
	Batch   2 pq = [    9405,   13301] index = [      44231715,88464951] size =     44233236
	Batch   3 pq = [   13301,   16290] index = [      88464951,132690195] size =     44225244
	Batch   4 pq = [   16290,   18810] index = [     132690195,176917455] size =     44227260
	Batch   5 pq = [   18810,   21030] index = [     176917455,221140965] size =     44223510
	Batch   6 pq = [   21030,   23037] index = [     221140965,265363203] size =     44222238
	Batch   7 pq = [   23037,   24883] index = [     265363203,309594286] size =     44231083
	Batch   8 pq = [   24883,   26106] index = [     309594286,340774671] size =     31180385
  Task number: 31
  Buffer size: 11059200
  Buffer per thread: 2
  We computed 14962813 shell quartets total.
  Whereas there are 17325441 unique shell quartets.

  ==> DiskJK: Disk-Based J/K Matrices <==

    J tasked:                  Yes
    K tasked:                  Yes
    wK tasked:                  No
    Memory [MiB]:              375
    Schwarz Cutoff:          1E-12

    OpenMP threads:              1

  Minimum eigenvalue in the overlap matrix is 1.1884028580E-03.
  Using Symmetric Orthogonalization.

  SCF Guess: Superposition of Atomic Densities via on-the-fly atomic UHF.

  ==> Iterations <==

                        Total Energy        Delta E     RMS |[F,P]|

   @RHF iter SAD:  -527.10005124133977   -5.27100e+02   0.00000e+00 
   @RHF iter   1:  -527.46877098122343   -3.68720e-01   2.87932e-03 DIIS
   @RHF iter   2:  -527.67834832943277   -2.09577e-01   1.59545e-03 DIIS
   @RHF iter   3:  -527.73865023524991   -6.03019e-02   4.11686e-04 DIIS
   @RHF iter   4:  -527.74388742350459   -5.23719e-03   1.45860e-04 DIIS
   @RHF iter   5:  -527.74454609933014   -6.58676e-04   2.57765e-05 DIIS
   @RHF iter   6:  -527.74457955654714   -3.34572e-05   1.16212e-05 DIIS
   @RHF iter   7:  -527.74458631674975   -6.76020e-06   3.98789e-06 DIIS
   @RHF iter   8:  -527.74458769605292   -1.37930e-06   1.47735e-06 DIIS
   @RHF iter   9:  -527.74458793160807   -2.35555e-07   5.85337e-07 DIIS
   @RHF iter  10:  -527.74458795340274   -2.17947e-08   1.91661e-07 DIIS
   @RHF iter  11:  -527.74458795677799   -3.37525e-09   7.52486e-08 DIIS
   @RHF iter  12:  -527.74458795717203   -3.94039e-10   3.96481e-08 DIIS
   @RHF iter  13:  -527.74458795726832   -9.62928e-11   1.17703e-08 DIIS
   @RHF iter  14:  -527.74458795727537   -7.04858e-12   4.51406e-09 DIIS
   @RHF iter  15:  -527.74458795727992   -4.54747e-12   1.84748e-09 DIIS
   @RHF iter  16:  -527.74458795728060   -6.82121e-13   5.77322e-10 DIIS
   @RHF iter  17:  -527.74458795728151   -9.09495e-13   2.56938e-10 DIIS
   @RHF iter  18:  -527.74458795728026    1.25056e-12   5.28042e-11 DIIS
  Energy and wave function converged.


  ==> Post-Iterations <==

    Orbital Energies [Eh]
    ---------------------

    Doubly Occupied:                                                      

       1A    -15.632761     2A    -15.610494     3A    -15.538914  
       4A    -15.513241     5A    -11.304523     6A    -11.274679  
       7A    -11.258812     8A    -11.248937     9A    -11.240642  
      10A    -11.232301    11A    -11.224210    12A    -11.217892  
      13A     -1.353083    14A     -1.329792    15A     -1.164115  
      16A     -1.143214    17A     -1.039301    18A     -1.019779  
      19A     -0.946274    20A     -0.932399    21A     -0.827648  
      22A     -0.807825    23A     -0.771769    24A     -0.750396  
      25A     -0.749361    26A     -0.731614    27A     -0.619675  
      28A     -0.618536    29A     -0.606042    30A     -0.594363  
      31A     -0.593285    32A     -0.581481    33A     -0.555975  
      34A     -0.544320    35A     -0.542978    36A     -0.536689  
      37A     -0.525909    38A     -0.512371    39A     -0.420992  
      40A     -0.397569    41A     -0.386796    42A     -0.368272  
      43A     -0.320958    44A     -0.297383  

    Virtual:                                                              

      45A      0.150371    46A      0.174751    47A      0.193860  
      48A      0.195737    49A      0.203459    50A      0.207050  
      51A      0.216933    52A      0.221258    53A      0.235193  
      54A      0.237742    55A      0.244509    56A      0.277734  
      57A      0.286336    58A      0.298223    59A      0.309122  
      60A      0.320027    61A      0.371861    62A      0.380050  
      63A      0.388167    64A      0.401756    65A      0.417051  
      66A      0.426734    67A      0.474143    68A      0.481203  
      69A      0.497351    70A      0.520549    71A      0.591997  
      72A      0.608625    73A      0.617768    74A      0.623199  
      75A      0.637309    76A      0.646040    77A      0.655879  
      78A      0.665601    79A      0.678087    80A      0.718001  
      81A      0.724986    82A      0.737138    83A      0.746341  
      84A      0.755693    85A      0.762483    86A      0.787480  
      87A      0.794354    88A      0.806673    89A      0.816775  
      90A      0.835774    91A      0.842071    92A      0.849662  
      93A      0.854911    94A      0.879072    95A      0.888854  
      96A      0.897449    97A      0.906761    98A      0.911515  
      99A      0.925051   100A      0.927207   101A      0.941190  
     102A      0.957391   103A      0.960362   104A      0.972713  
     105A      0.987622   106A      1.006136   107A      1.022491  
     108A      1.037193   109A      1.042963   110A      1.063064  
     111A      1.072283   112A      1.096318   113A      1.108879  
     114A      1.123009   115A      1.137517   116A      1.144130  
     117A      1.153071   118A      1.193001   119A      1.198727  
     120A      1.238332   121A      1.261327   122A      1.266092  
     123A      1.271192   124A      1.281516   125A      1.311757  
     126A      1.321884   127A      1.326534   128A      1.337050  
     129A      1.356350   130A      1.374632   131A      1.422684  
     132A      1.433909   133A      1.452384   134A      1.466529  
     135A      1.490938   136A      1.506647   137A      1.539084  
     138A      1.544750   139A      1.565289   140A      1.585703  
     141A      1.605273   142A      1.609950   143A      1.638352  
     144A      1.645920   145A      1.687919   146A      1.696855  
     147A      1.710304   148A      1.753154   149A      1.766258  
     150A      1.794695   151A      1.802762   152A      1.813012  
     153A      1.818229   154A      1.836610   155A      1.851470  
     156A      1.880748   157A      1.905690   158A      1.915615  
     159A      1.920493   160A      1.937038   161A      1.943716  
     162A      1.954897   163A      1.960867   164A      1.964299  
     165A      1.979553   166A      1.986806   167A      1.996670  
     168A      2.019381   169A      2.047962   170A      2.062718  
     171A      2.078100   172A      2.106533   173A      2.111709  
     174A      2.130523   175A      2.133427   176A      2.148738  
     177A      2.179246   178A      2.185703   179A      2.213628  
     180A      2.220349   181A      2.234248   182A      2.247552  
     183A      2.306883   184A      2.310688   185A      2.343733  
     186A      2.357028   187A      2.387103   188A      2.400227  
     189A      2.431755   190A      2.439291   191A      2.458073  
     192A      2.475746   193A      2.507169   194A      2.511785  
     195A      2.545102   196A      2.558357   197A      2.595879  
     198A      2.628974   199A      2.695256   200A      2.698145  
     201A      2.721988   202A      2.740160   203A      2.753178  
     204A      2.768737   205A      2.778244   206A      2.783960  
     207A      2.799274   208A      2.818135   209A      2.828203  
     210A      2.834246   211A      2.852599   212A      2.878658  
     213A      2.882134   214A      2.903842   215A      2.914448  
     216A      2.957217   217A      2.985221   218A      2.991090  
     219A      3.054451   220A      3.090894   221A      3.156000  
     222A      3.182820   223A      3.230501   224A      3.279407  
     225A      3.464008   226A      3.486626   227A      3.790312  
     228A      3.815172  

    Final Occupation by Irrep:
              A 
    DOCC [    44 ]

  @RHF Final Energy:  -527.74458795728026

   => Energetics <=

    Nuclear Repulsion Energy =            653.7705022140729625
    One-Electron Energy =               -2013.2550385144791107
    Two-Electron Energy =                 831.7399483431257750
    Total Energy =                       -527.7445879572802596

Computation Completed


Properties will be evaluated at   0.000000,   0.000000,   0.000000 [a0]

Properties computed using the SCF density matrix

  Nuclear Dipole Moment: [e a0]
     X:    -5.1678      Y:     1.6663      Z:     0.2332

  Electronic Dipole Moment: [e a0]
     X:     6.7295      Y:    -0.2143      Z:    -1.4686

  Dipole Moment: [e a0]
     X:     1.5617      Y:     1.4521      Z:    -1.2353     Total:     2.4645

  Dipole Moment: [D]
     X:     3.9695      Y:     3.6908      Z:    -3.1399     Total:     6.2640


*** tstop() called on ds3 at Mon Apr 27 07:20:03 2020
Module time:
	user time   =     122.05 seconds =       2.03 minutes
	system time =      54.44 seconds =       0.91 minutes
	total time  =        251 seconds =       4.18 minutes
Total time:
	user time   =     122.05 seconds =       2.03 minutes
	system time =      54.44 seconds =       0.91 minutes
	total time  =        251 seconds =       4.18 minutes
                                     G D M A

                                 by Anthony Stone

                           version 2.2.06, 22 June 2011

               Distributed Multipoles from Gaussian wavefunctions


Starting at 7:20:3 on 27 Apr 2020   


Using SCF density matrix from file ./SSI/SSI-013HIE-095HIE-1-dimer.test.26890.fchk


                         Distributed Multipole Analysis

Standard DMA

Positions and radii in angstrom
Multipole moments in atomic units, ea_0^k for rank k

C          x = -0.818445  y = -2.746573  z = -1.719072 angstrom
           Maximum rank =  0   Radius =  0.650 angstrom
                   Q00  =  -0.194521

C          x =  0.379555  y = -1.852573  z = -1.660072 angstrom
           Maximum rank =  0   Radius =  0.650 angstrom
                   Q00  =   0.211772

C          x =  0.740555  y = -0.818573  z = -2.462072 angstrom
           Maximum rank =  0   Radius =  0.650 angstrom
                   Q00  =   0.008542

C          x =  2.382555  y = -1.186573  z = -1.042072 angstrom
           Maximum rank =  0   Radius =  0.650 angstrom
                   Q00  =   0.448485

N          x =  1.433555  y = -2.079573  z = -0.793072 angstrom
           Maximum rank =  0   Radius =  0.650 angstrom
                   Q00  =  -0.771510

N          x =  1.986555  y = -0.404573  z = -2.038072 angstrom
           Maximum rank =  0   Radius =  0.650 angstrom
                   Q00  =  -0.472119

H          x = -1.633445  y = -2.253573  z = -2.250072 angstrom
           Maximum rank =  0   Radius =  0.325 angstrom
                   Q00  =   0.098713

H          x = -1.145445  y = -2.935573  z = -0.696072 angstrom
           Maximum rank =  0   Radius =  0.325 angstrom
                   Q00  =   0.126770

H          x =  0.164555  y = -0.399573  z = -3.271072 angstrom
           Maximum rank =  0   Radius =  0.325 angstrom
                   Q00  =   0.107153

H          x =  3.334555  y = -1.114573  z = -0.526072 angstrom
           Maximum rank =  0   Radius =  0.325 angstrom
                   Q00  =   0.121922

H          x =  2.542555  y =  0.342427  z = -2.441072 angstrom
           Maximum rank =  0   Radius =  0.325 angstrom
                   Q00  =   0.220104

H          x = -0.566675  y = -3.704613  z = -2.197372 angstrom
           Maximum rank =  0   Radius =  0.325 angstrom
                   Q00  =   0.105582

C          x = -2.863445  y =  2.183427  z =  2.639928 angstrom
           Maximum rank =  0   Radius =  0.650 angstrom
                   Q00  =  -0.192597

C          x = -0.153445  y =  0.434427  z =  0.961928 angstrom
           Maximum rank =  0   Radius =  0.650 angstrom
                   Q00  =   0.468783

C          x = -1.599445  y =  1.769427  z =  1.944928 angstrom
           Maximum rank =  0   Radius =  0.650 angstrom
                   Q00  =   0.232514

C          x = -0.483445  y =  2.489427  z =  1.650928 angstrom
           Maximum rank =  0   Radius =  0.650 angstrom
                   Q00  =  -0.021108

N          x = -1.362445  y =  0.488427  z =  1.510928 angstrom
           Maximum rank =  0   Radius =  0.650 angstrom
                   Q00  =  -0.769549

N          x =  0.408555  y =  1.634427  z =  1.032928 angstrom
           Maximum rank =  0   Radius =  0.650 angstrom
                   Q00  =  -0.467111

H          x =  0.318555  y = -0.460573  z =  0.596928 angstrom
           Maximum rank =  0   Radius =  0.325 angstrom
                   Q00  =   0.124181

H          x =  1.358555  y =  1.849427  z =  0.751928 angstrom
           Maximum rank =  0   Radius =  0.325 angstrom
                   Q00  =   0.211965

H          x = -0.324445  y =  3.534427  z =  1.883928 angstrom
           Maximum rank =  0   Radius =  0.325 angstrom
                   Q00  =   0.095229

H          x = -3.720445  y =  1.896427  z =  2.038928 angstrom
           Maximum rank =  0   Radius =  0.325 angstrom
                   Q00  =   0.111816

H          x = -2.861445  y =  3.272427  z =  2.712928 angstrom
           Maximum rank =  0   Radius =  0.325 angstrom
                   Q00  =   0.087515

H          x = -2.971695  y =  1.749711  z =  3.645001 angstrom
           Maximum rank =  0   Radius =  0.325 angstrom
                   Q00  =   0.107468

Total multipoles referred to origin at
           x =   0.000000,  y =    0.000000,  z =    0.000000 angstrom
                   Q00  =  -0.000000

Finished at 7:20:3 on 27 Apr 2020   

  DMA results are available in the Python driver through the
	  variable('DMA DISTRIBUTED MULTIPOLES')
  and
	  variable('DMA TOTAL MULTIPOLES')
  commands.


    Psi4 stopped on: Monday, 27 April 2020 07:20AM
    Psi4 wall time for execution: 0:04:10.56

*** Psi4 exiting successfully. Buy a developer a beer!
