
    -----------------------------------------------------------------------
          Psi4: An Open-Source Ab Initio Electronic Structure Package
                               Psi4 1.3.2 release

                         Git: Rev {HEAD} ecbda83 


    R. M. Parrish, L. A. Burns, D. G. A. Smith, A. C. Simmonett,
    A. E. DePrince III, E. G. Hohenstein, U. Bozkaya, A. Yu. Sokolov,
    R. Di Remigio, R. M. Richard, J. F. Gonthier, A. M. James,
    H. R. McAlexander, A. Kumar, M. Saitow, X. Wang, B. P. Pritchard,
    P. Verma, H. F. Schaefer III, K. Patkowski, R. A. King, E. F. Valeev,
    F. A. Evangelista, J. M. Turney, T. D. Crawford, and C. D. Sherrill,
    J. Chem. Theory Comput. 13(7) pp 3185--3197 (2017).
    (doi: 10.1021/acs.jctc.7b00174)


                         Additional Contributions by
    P. Kraus, H. Kruse, M. H. Lechner, M. C. Schieber, R. A. Shaw,
    A. Alenaizan, R. Galvelis, Z. L. Glick, S. Lehtola, and J. P. Misiewicz

    -----------------------------------------------------------------------


    Psi4 started on: Tuesday, 28 April 2020 11:25AM

    Process ID: 10355
    Host:       ds3
    PSIDATADIR: /theoryfs2/ds/metcalf/miniconda2/envs/tf2gpu/share/psi4
    Memory:     500.0 MiB
    Threads:    1
    
  ==> Input File <==

--------------------------------------------------------------------------
import numpy as np
set {scf_type pk
basis cc-pvdz
d_convergence 10
gdma_switch   0
gdma_limit    0
gdma_origin   [ 0.0,  0.0,  0.0 ]
}
molecule test {
    units Angstrom
    -1 1
    --
    -1 1
    C                0.761708417655456    -0.434106344521613    -4.163446022455360
    C                1.743708417655456    -0.588106344521612    -0.670446022455360
    C               -0.046291582344544     0.109893655478387    -1.728446022455361
    C                0.816708417655456    -0.397106344521613    -2.656446022455360
    N                0.524708417655456    -0.094106344521613    -0.492446022455361
    N                1.953708417655456    -0.773106344521613    -1.970446022455361
    H                0.130708417655456     0.127893655478387     0.426553977544640
    H                2.449708417655456    -0.813106344521613     0.122553977544640
    H               -1.020291582344544     0.540893655478387    -1.911446022455361
    H                0.680708417655456    -1.477106344521613    -4.469446022455360
    H                1.700708417655456    -0.040106344521613    -4.539446022455360
    H               -0.068478582344544     0.132163655478387    -4.610805022455360
    C               -2.378291582344544     1.011893655478387     1.890553977544639
    C               -1.262291582344544     0.479893655478387     2.768553977544639
    O               -0.127291582344544     0.339893655478388     2.263553977544639
    O               -1.512291582344544     0.165893655478387     3.947553977544640
    H               -2.946291582344544     0.157893655478387     1.515553977544639
    H               -1.931291582344544     1.505893655478387     1.023553977544639
    H               -3.067087582344544     1.716373655478387     2.379703977544640

}
e, wfn = energy('scf', return_wfn=True)
gdma(wfn)
dmavals = variable('DMA DISTRIBUTED MULTIPOLES')
charges = np.array(dmavals)
print(charges)
np.save('SSI-037HIE-050GLU-1-dimer.npy', np.array(charges))--------------------------------------------------------------------------

*** tstart() called on ds3
*** at Tue Apr 28 11:25:15 2020

   => Loading Basis Set <=

    Name: CC-PVDZ
    Role: ORBITAL
    Keyword: BASIS
    atoms 1-4, 13-14  entry C          line   138 file /theoryfs2/ds/metcalf/miniconda2/envs/tf2gpu/share/psi4/basis/cc-pvdz.gbs 
    atoms 5-6         entry N          line   168 file /theoryfs2/ds/metcalf/miniconda2/envs/tf2gpu/share/psi4/basis/cc-pvdz.gbs 
    atoms 7-12, 17-19 entry H          line    22 file /theoryfs2/ds/metcalf/miniconda2/envs/tf2gpu/share/psi4/basis/cc-pvdz.gbs 
    atoms 15-16       entry O          line   198 file /theoryfs2/ds/metcalf/miniconda2/envs/tf2gpu/share/psi4/basis/cc-pvdz.gbs 


         ---------------------------------------------------------
                                   SCF
               by Justin Turney, Rob Parrish, Andy Simmonett
                          and Daniel G. A. Smith
                              RHF Reference
                        1 Threads,    500 MiB Core
         ---------------------------------------------------------

  ==> Geometry <==

    Molecular point group: c1
    Full point group: C1

    Geometry (in Angstrom), charge = -1, multiplicity = 1:

       Center              X                  Y                   Z               Mass       
    ------------   -----------------  -----------------  -----------------  -----------------
         C            0.761708417655    -0.434106344522    -4.163446022455    12.000000000000
         C            1.743708417655    -0.588106344522    -0.670446022455    12.000000000000
         C           -0.046291582345     0.109893655478    -1.728446022455    12.000000000000
         C            0.816708417655    -0.397106344522    -2.656446022455    12.000000000000
         N            0.524708417655    -0.094106344522    -0.492446022455    14.003074004430
         N            1.953708417655    -0.773106344522    -1.970446022455    14.003074004430
         H            0.130708417655     0.127893655478     0.426553977545     1.007825032230
         H            2.449708417655    -0.813106344522     0.122553977545     1.007825032230
         H           -1.020291582345     0.540893655478    -1.911446022455     1.007825032230
         H            0.680708417655    -1.477106344522    -4.469446022455     1.007825032230
         H            1.700708417655    -0.040106344522    -4.539446022455     1.007825032230
         H           -0.068478582345     0.132163655478    -4.610805022455     1.007825032230
         C           -2.378291582345     1.011893655478     1.890553977545    12.000000000000
         C           -1.262291582345     0.479893655478     2.768553977545    12.000000000000
         O           -0.127291582345     0.339893655478     2.263553977545    15.994914619570
         O           -1.512291582345     0.165893655478     3.947553977545    15.994914619570
         H           -2.946291582345     0.157893655478     1.515553977545     1.007825032230
         H           -1.931291582345     1.505893655478     1.023553977545     1.007825032230
         H           -3.067087582345     1.716373655478     2.379703977545     1.007825032230

  Running in c1 symmetry.

  Rotational constants: A =      0.12723  B =      0.01511  C =      0.01367 [cm^-1]
  Rotational constants: A =   3814.16543  B =    452.87067  C =    409.74372 [MHz]
  Nuclear repulsion =  480.122824405502058

  Charge       = -1
  Multiplicity = 1
  Electrons    = 76
  Nalpha       = 38
  Nbeta        = 38

  ==> Algorithm <==

  SCF Algorithm Type is PK.
  DIIS enabled.
  MOM disabled.
  Fractional occupation disabled.
  Guess Type is SAD.
  Energy threshold   = 1.00e-06
  Density threshold  = 1.00e-10
  Integral threshold = 0.00e+00

  ==> Primary Basis <==

  Basis Set: CC-PVDZ
    Blend: CC-PVDZ
    Number of shells: 87
    Number of basis function: 185
    Number of Cartesian functions: 195
    Spherical Harmonics?: true
    Max angular momentum: 2

  ==> Pre-Iterations <==

   -------------------------------------------------------
    Irrep   Nso     Nmo     Nalpha   Nbeta   Ndocc  Nsocc
   -------------------------------------------------------
     A        185     185       0       0       0       0
   -------------------------------------------------------
    Total     185     185      38      38      38       0
   -------------------------------------------------------

  ==> Integral Setup <==

  Using integral reordering PK algorithm.
  Sizing the integral batches needed.
  Building batch lookup table.
   Calculation information:
      Number of atoms:                  19
      Number of AO shells:              87
      Number of primitives:            265
      Number of atomic orbitals:       195
      Number of basis functions:       185

      Integral cutoff                 1.00e-12
      Number of threads:                 1

	Batch   1 pq = [       0,    9405] index = [             0,44231715] size =     44231715
	Batch   2 pq = [    9405,   13301] index = [      44231715,88464951] size =     44233236
	Batch   3 pq = [   13301,   16290] index = [      88464951,132690195] size =     44225244
	Batch   4 pq = [   16290,   17205] index = [     132690195,148014615] size =     15324420
  Task number: 14
  Buffer size: 11059200
  Buffer per thread: 2
  We computed 5339929 shell quartets total.
  Whereas there are 7328706 unique shell quartets.

  ==> DiskJK: Disk-Based J/K Matrices <==

    J tasked:                  Yes
    K tasked:                  Yes
    wK tasked:                  No
    Memory [MiB]:              375
    Schwarz Cutoff:          1E-12

    OpenMP threads:              1

  Minimum eigenvalue in the overlap matrix is 1.2010195147E-03.
  Using Symmetric Orthogonalization.

  SCF Guess: Superposition of Atomic Densities via on-the-fly atomic UHF.

  ==> Iterations <==

                        Total Energy        Delta E     RMS |[F,P]|

   @RHF iter SAD:  -489.75488614014893   -4.89755e+02   0.00000e+00 
   @RHF iter   1:  -490.84946607896154   -1.09458e+00   4.12960e-03 DIIS
   @RHF iter   2:  -491.07334908164353   -2.23883e-01   2.33816e-03 DIIS
   @RHF iter   3:  -491.14335196786220   -7.00029e-02   3.99953e-04 DIIS
   @RHF iter   4:  -491.14673786366700   -3.38590e-03   1.58308e-04 DIIS
   @RHF iter   5:  -491.14727046795724   -5.32604e-04   3.42653e-05 DIIS
   @RHF iter   6:  -491.14729779543939   -2.73275e-05   1.43266e-05 DIIS
   @RHF iter   7:  -491.14730300620880   -5.21077e-06   3.59877e-06 DIIS
   @RHF iter   8:  -491.14730378656111   -7.80352e-07   1.86661e-06 DIIS
   @RHF iter   9:  -491.14730398132212   -1.94761e-07   7.49324e-07 DIIS
   @RHF iter  10:  -491.14730402189804   -4.05759e-08   2.05584e-07 DIIS
   @RHF iter  11:  -491.14730402454200   -2.64396e-09   5.87454e-08 DIIS
   @RHF iter  12:  -491.14730402467399   -1.31990e-10   3.23234e-08 DIIS
   @RHF iter  13:  -491.14730402470832   -3.43334e-11   1.17707e-08 DIIS
   @RHF iter  14:  -491.14730402471434   -6.02540e-12   3.89762e-09 DIIS
   @RHF iter  15:  -491.14730402471451   -1.70530e-13   1.69085e-09 DIIS
   @RHF iter  16:  -491.14730402471753   -3.01270e-12   6.27577e-10 DIIS
   @RHF iter  17:  -491.14730402471747    5.68434e-14   2.44299e-10 DIIS
   @RHF iter  18:  -491.14730402471548    1.98952e-12   6.81825e-11 DIIS
  Energy and wave function converged.


  ==> Post-Iterations <==

    Orbital Energies [Eh]
    ---------------------

    Doubly Occupied:                                                      

       1A    -20.298127     2A    -20.283098     3A    -15.474093  
       4A    -15.408651     5A    -11.166335     6A    -11.145247  
       7A    -11.133418     8A    -11.132131     9A    -11.128666  
      10A    -11.074396    11A     -1.210467    12A     -1.183819  
      13A     -1.068922    14A     -1.025304    15A     -0.916080  
      16A     -0.832335    17A     -0.822350    18A     -0.683785  
      19A     -0.640152    20A     -0.615978    21A     -0.531241  
      22A     -0.494182    23A     -0.488720    24A     -0.472739  
      25A     -0.444755    26A     -0.441713    27A     -0.436071  
      28A     -0.434160    29A     -0.427515    30A     -0.418499  
      31A     -0.369163    32A     -0.334461    33A     -0.295091  
      34A     -0.253043    35A     -0.218248    36A     -0.199831  
      37A     -0.193739    38A     -0.190572  

    Virtual:                                                              

      39A      0.286940    40A      0.311760    41A      0.315915  
      42A      0.328993    43A      0.340161    44A      0.343433  
      45A      0.362997    46A      0.374189    47A      0.391505  
      48A      0.410564    49A      0.459145    50A      0.469351  
      51A      0.485227    52A      0.515941    53A      0.536544  
      54A      0.578753    55A      0.595414    56A      0.612105  
      57A      0.677866    58A      0.709637    59A      0.723081  
      60A      0.733043    61A      0.745942    62A      0.774134  
      63A      0.811174    64A      0.814390    65A      0.835498  
      66A      0.848895    67A      0.876917    68A      0.884773  
      69A      0.902806    70A      0.922127    71A      0.929801  
      72A      0.939669    73A      0.949320    74A      0.975724  
      75A      0.977069    76A      0.994049    77A      1.007235  
      78A      1.014799    79A      1.022377    80A      1.025670  
      81A      1.056836    82A      1.071779    83A      1.080532  
      84A      1.091326    85A      1.116311    86A      1.171665  
      87A      1.177561    88A      1.191836    89A      1.216964  
      90A      1.230219    91A      1.261451    92A      1.264227  
      93A      1.287982    94A      1.314526    95A      1.328460  
      96A      1.373130    97A      1.387388    98A      1.409589  
      99A      1.424982   100A      1.452409   101A      1.472691  
     102A      1.505713   103A      1.541324   104A      1.551784  
     105A      1.574103   106A      1.575221   107A      1.600789  
     108A      1.613079   109A      1.629412   110A      1.646804  
     111A      1.677203   112A      1.720857   113A      1.732177  
     114A      1.737991   115A      1.779676   116A      1.809592  
     117A      1.817035   118A      1.834928   119A      1.880571  
     120A      1.912776   121A      1.919195   122A      1.942155  
     123A      1.962243   124A      2.013710   125A      2.015634  
     126A      2.028902   127A      2.046316   128A      2.061706  
     129A      2.075869   130A      2.080046   131A      2.091401  
     132A      2.108525   133A      2.145625   134A      2.160514  
     135A      2.166279   136A      2.190067   137A      2.226891  
     138A      2.239534   139A      2.279110   140A      2.308413  
     141A      2.321422   142A      2.340448   143A      2.361869  
     144A      2.389789   145A      2.414018   146A      2.437004  
     147A      2.468685   148A      2.510147   149A      2.536060  
     150A      2.571892   151A      2.584459   152A      2.609629  
     153A      2.642544   154A      2.661373   155A      2.697461  
     156A      2.732062   157A      2.775312   158A      2.807281  
     159A      2.821300   160A      2.866309   161A      2.893760  
     162A      2.895460   163A      2.923829   164A      2.926713  
     165A      2.949752   166A      2.969616   167A      2.978848  
     168A      3.008462   169A      3.047779   170A      3.089887  
     171A      3.186921   172A      3.222502   173A      3.259475  
     174A      3.283143   175A      3.311261   176A      3.352632  
     177A      3.367453   178A      3.589586   179A      3.614179  
     180A      3.751462   181A      3.809405   182A      3.938552  
     183A      4.043733   184A      4.079426   185A      4.176002  

    Final Occupation by Irrep:
              A 
    DOCC [    38 ]

  @RHF Final Energy:  -491.14730402471548

   => Energetics <=

    Nuclear Repulsion Energy =            480.1228244055020582
    One-Electron Energy =               -1634.7660635056906813
    Two-Electron Energy =                 663.4959350754730849
    Total Energy =                       -491.1473040247154813

Computation Completed


Properties will be evaluated at   0.000000,   0.000000,   0.000000 [a0]

Properties computed using the SCF density matrix

  Nuclear Dipole Moment: [e a0]
     X:    -3.8321      Y:     1.7400      Z:    -9.3970

  Electronic Dipole Moment: [e a0]
     X:     3.8951      Y:    -1.5284      Z:     5.5391

  Dipole Moment: [e a0]
     X:     0.0630      Y:     0.2116      Z:    -3.8579     Total:     3.8642

  Dipole Moment: [D]
     X:     0.1601      Y:     0.5378      Z:    -9.8058     Total:     9.8219


*** tstop() called on ds3 at Tue Apr 28 11:26:24 2020
Module time:
	user time   =      47.64 seconds =       0.79 minutes
	system time =      24.16 seconds =       0.40 minutes
	total time  =         69 seconds =       1.15 minutes
Total time:
	user time   =      47.64 seconds =       0.79 minutes
	system time =      24.16 seconds =       0.40 minutes
	total time  =         69 seconds =       1.15 minutes
                                     G D M A

                                 by Anthony Stone

                           version 2.2.06, 22 June 2011

               Distributed Multipoles from Gaussian wavefunctions


Starting at 11:26:24 on 28 Apr 2020 


Using SCF density matrix from file ./SSI/SSI-037HIE-050GLU-1-dimer.test.10355.fchk


                         Distributed Multipole Analysis

Standard DMA

Positions and radii in angstrom
Multipole moments in atomic units, ea_0^k for rank k

C          x =  0.761708  y = -0.434106  z = -4.163446 angstrom
           Maximum rank =  0   Radius =  0.650 angstrom
                   Q00  =  -0.191821

C          x =  1.743708  y = -0.588106  z = -0.670446 angstrom
           Maximum rank =  0   Radius =  0.650 angstrom
                   Q00  =   0.482914

C          x = -0.046292  y =  0.109894  z = -1.728446 angstrom
           Maximum rank =  0   Radius =  0.650 angstrom
                   Q00  =   0.042684

C          x =  0.816708  y = -0.397106  z = -2.656446 angstrom
           Maximum rank =  0   Radius =  0.650 angstrom
                   Q00  =   0.183820

N          x =  0.524708  y = -0.094106  z = -0.492446 angstrom
           Maximum rank =  0   Radius =  0.650 angstrom
                   Q00  =  -0.505301

N          x =  1.953708  y = -0.773106  z = -1.970446 angstrom
           Maximum rank =  0   Radius =  0.650 angstrom
                   Q00  =  -0.805343

H          x =  0.130708  y =  0.127894  z =  0.426554 angstrom
           Maximum rank =  0   Radius =  0.325 angstrom
                   Q00  =   0.318103

H          x =  2.449708  y = -0.813106  z =  0.122554 angstrom
           Maximum rank =  0   Radius =  0.325 angstrom
                   Q00  =   0.117855

H          x = -1.020292  y =  0.540894  z = -1.911446 angstrom
           Maximum rank =  0   Radius =  0.325 angstrom
                   Q00  =   0.075314

H          x =  0.680708  y = -1.477106  z = -4.469446 angstrom
           Maximum rank =  0   Radius =  0.325 angstrom
                   Q00  =   0.087589

H          x =  1.700708  y = -0.040106  z = -4.539446 angstrom
           Maximum rank =  0   Radius =  0.325 angstrom
                   Q00  =   0.099112

H          x = -0.068479  y =  0.132164  z = -4.610805 angstrom
           Maximum rank =  0   Radius =  0.325 angstrom
                   Q00  =   0.079844

C          x = -2.378292  y =  1.011894  z =  1.890554 angstrom
           Maximum rank =  0   Radius =  0.650 angstrom
                   Q00  =  -0.290069

C          x = -1.262292  y =  0.479894  z =  2.768554 angstrom
           Maximum rank =  0   Radius =  0.650 angstrom
                   Q00  =   0.949641

O          x = -0.127292  y =  0.339894  z =  2.263554 angstrom
           Maximum rank =  0   Radius =  0.650 angstrom
                   Q00  =  -0.955526

O          x = -1.512292  y =  0.165894  z =  3.947554 angstrom
           Maximum rank =  0   Radius =  0.650 angstrom
                   Q00  =  -0.900208

H          x = -2.946292  y =  0.157894  z =  1.515554 angstrom
           Maximum rank =  0   Radius =  0.325 angstrom
                   Q00  =   0.088147

H          x = -1.931292  y =  1.505894  z =  1.023554 angstrom
           Maximum rank =  0   Radius =  0.325 angstrom
                   Q00  =   0.047365

H          x = -3.067088  y =  1.716374  z =  2.379704 angstrom
           Maximum rank =  0   Radius =  0.325 angstrom
                   Q00  =   0.075883

Total multipoles referred to origin at
           x =   0.000000,  y =    0.000000,  z =    0.000000 angstrom
                   Q00  =  -1.000000

Finished at 11:26:24 on 28 Apr 2020 

  DMA results are available in the Python driver through the
	  variable('DMA DISTRIBUTED MULTIPOLES')
  and
	  variable('DMA TOTAL MULTIPOLES')
  commands.


    Psi4 stopped on: Tuesday, 28 April 2020 11:26AM
    Psi4 wall time for execution: 0:01:09.27

*** Psi4 exiting successfully. Buy a developer a beer!
