
    -----------------------------------------------------------------------
          Psi4: An Open-Source Ab Initio Electronic Structure Package
                               Psi4 1.3.2 release

                         Git: Rev {HEAD} ecbda83 


    R. M. Parrish, L. A. Burns, D. G. A. Smith, A. C. Simmonett,
    A. E. DePrince III, E. G. Hohenstein, U. Bozkaya, A. Yu. Sokolov,
    R. Di Remigio, R. M. Richard, J. F. Gonthier, A. M. James,
    H. R. McAlexander, A. Kumar, M. Saitow, X. Wang, B. P. Pritchard,
    P. Verma, H. F. Schaefer III, K. Patkowski, R. A. King, E. F. Valeev,
    F. A. Evangelista, J. M. Turney, T. D. Crawford, and C. D. Sherrill,
    J. Chem. Theory Comput. 13(7) pp 3185--3197 (2017).
    (doi: 10.1021/acs.jctc.7b00174)


                         Additional Contributions by
    P. Kraus, H. Kruse, M. H. Lechner, M. C. Schieber, R. A. Shaw,
    A. Alenaizan, R. Galvelis, Z. L. Glick, S. Lehtola, and J. P. Misiewicz

    -----------------------------------------------------------------------


    Psi4 started on: Monday, 27 April 2020 12:39PM

    Process ID: 3638
    Host:       ds3
    PSIDATADIR: /theoryfs2/ds/metcalf/miniconda2/envs/tf2gpu/share/psi4
    Memory:     500.0 MiB
    Threads:    1
    
  ==> Input File <==

--------------------------------------------------------------------------
import numpy as np
set {scf_type pk
basis cc-pvdz
d_convergence 10
gdma_switch   0
gdma_limit    0
gdma_origin   [ 0.0,  0.0,  0.0 ]
}
molecule test {
    units Angstrom
    0 1
    --
    0 1
    C               -3.345671875077544    -1.838079353501239     1.905841971189431
    C               -2.555671875077544    -2.376079353501239     3.110841971189431
    C               -3.553671875077544    -2.850079353501239     0.773841971189431
    H               -4.317671875077544    -1.478079353501239     2.246841971189431
    H               -2.818671875077544    -0.986079353501239     1.488841971189431
    H               -1.702671875077544    -2.959079353501239     2.762841971189431
    H               -3.996671875077544    -3.757079353501239     1.184841971189431
    H               -3.191731875077544    -3.018189353501239     3.737838971189431
    H               -2.129221875077544    -1.545709353501239     3.692756971189431
    H               -4.242241875077545    -2.458979353501239     0.010360971189431
    H               -2.589121875077544    -3.111039353501239     0.313912971189431
    C                2.664328124922456     0.239920646498761    -3.084158028810569
    C                1.175328124922456     1.082920646498761     0.256841971189431
    C                1.018328124922456     0.646920646498761    -1.084158028810569
    C                2.327328124922456     0.629920646498761    -1.683158028810569
    C                3.193328124922456     1.038920646498761    -0.719158028810569
    C               -1.155671875077544     0.917920646498761     0.647841971189431
    C                0.105328124922456     1.225920646498761     1.123841971189431
    C               -1.347671875077544     0.488920646498761    -0.671158028810569
    C               -0.273671875077544     0.352920646498761    -1.545158028810569
    N                2.511328124922456     1.311920646498761     0.442841971189431
    H               -2.010671875077544     1.053920646498761     1.295841971189431
    H                0.252328124922456     1.564920646498761     2.136841971189431
    H               -2.350671875077544     0.286920646498761    -1.023158028810569
    H               -0.459671875077544     0.068920646498761    -2.566158028810569
    H                2.924328124922456     1.722920646498761     1.277841971189431
    H                4.264328124922456     1.131920646498761    -0.857158028810569
    H                3.748328124922456     0.152920646498761    -3.171158028810569
    H                2.338328124922456     1.043920646498761    -3.745158028810569
    H                2.201988124922456    -0.701979353501239    -3.414399028810569

}
e, wfn = energy('scf', return_wfn=True)
gdma(wfn)
dmavals = variable('DMA DISTRIBUTED MULTIPOLES')
charges = np.array(dmavals)
print(charges)
np.save('SSI-087LEU-096TRP-1-dimer.npy', np.array(charges))--------------------------------------------------------------------------

*** tstart() called on ds3
*** at Mon Apr 27 12:39:24 2020

   => Loading Basis Set <=

    Name: CC-PVDZ
    Role: ORBITAL
    Keyword: BASIS
    atoms 1-3, 12-20  entry C          line   138 file /theoryfs2/ds/metcalf/miniconda2/envs/tf2gpu/share/psi4/basis/cc-pvdz.gbs 
    atoms 4-11, 22-30 entry H          line    22 file /theoryfs2/ds/metcalf/miniconda2/envs/tf2gpu/share/psi4/basis/cc-pvdz.gbs 
    atoms 21          entry N          line   168 file /theoryfs2/ds/metcalf/miniconda2/envs/tf2gpu/share/psi4/basis/cc-pvdz.gbs 


         ---------------------------------------------------------
                                   SCF
               by Justin Turney, Rob Parrish, Andy Simmonett
                          and Daniel G. A. Smith
                              RHF Reference
                        1 Threads,    500 MiB Core
         ---------------------------------------------------------

  ==> Geometry <==

    Molecular point group: c1
    Full point group: C1

    Geometry (in Angstrom), charge = 0, multiplicity = 1:

       Center              X                  Y                   Z               Mass       
    ------------   -----------------  -----------------  -----------------  -----------------
         C           -3.345671875078    -1.838079353501     1.905841971189    12.000000000000
         C           -2.555671875078    -2.376079353501     3.110841971189    12.000000000000
         C           -3.553671875078    -2.850079353501     0.773841971189    12.000000000000
         H           -4.317671875078    -1.478079353501     2.246841971189     1.007825032230
         H           -2.818671875078    -0.986079353501     1.488841971189     1.007825032230
         H           -1.702671875078    -2.959079353501     2.762841971189     1.007825032230
         H           -3.996671875078    -3.757079353501     1.184841971189     1.007825032230
         H           -3.191731875078    -3.018189353501     3.737838971189     1.007825032230
         H           -2.129221875078    -1.545709353501     3.692756971189     1.007825032230
         H           -4.242241875078    -2.458979353501     0.010360971189     1.007825032230
         H           -2.589121875078    -3.111039353501     0.313912971189     1.007825032230
         C            2.664328124922     0.239920646499    -3.084158028811    12.000000000000
         C            1.175328124922     1.082920646499     0.256841971189    12.000000000000
         C            1.018328124922     0.646920646499    -1.084158028811    12.000000000000
         C            2.327328124922     0.629920646499    -1.683158028811    12.000000000000
         C            3.193328124922     1.038920646499    -0.719158028811    12.000000000000
         C           -1.155671875078     0.917920646499     0.647841971189    12.000000000000
         C            0.105328124922     1.225920646499     1.123841971189    12.000000000000
         C           -1.347671875078     0.488920646499    -0.671158028811    12.000000000000
         C           -0.273671875078     0.352920646499    -1.545158028811    12.000000000000
         N            2.511328124922     1.311920646499     0.442841971189    14.003074004430
         H           -2.010671875078     1.053920646499     1.295841971189     1.007825032230
         H            0.252328124922     1.564920646499     2.136841971189     1.007825032230
         H           -2.350671875078     0.286920646499    -1.023158028811     1.007825032230
         H           -0.459671875078     0.068920646499    -2.566158028811     1.007825032230
         H            2.924328124922     1.722920646499     1.277841971189     1.007825032230
         H            4.264328124922     1.131920646499    -0.857158028811     1.007825032230
         H            3.748328124922     0.152920646499    -3.171158028811     1.007825032230
         H            2.338328124922     1.043920646499    -3.745158028811     1.007825032230
         H            2.201988124922    -0.701979353501    -3.414399028811     1.007825032230

  Running in c1 symmetry.

  Rotational constants: A =      0.04671  B =      0.01094  C =      0.01001 [cm^-1]
  Rotational constants: A =   1400.27608  B =    327.85119  C =    300.19446 [MHz]
  Nuclear repulsion =  731.631351424971513

  Charge       = 0
  Multiplicity = 1
  Electrons    = 96
  Nalpha       = 48
  Nbeta        = 48

  ==> Algorithm <==

  SCF Algorithm Type is PK.
  DIIS enabled.
  MOM disabled.
  Fractional occupation disabled.
  Guess Type is SAD.
  Energy threshold   = 1.00e-06
  Density threshold  = 1.00e-10
  Integral threshold = 0.00e+00

  ==> Primary Basis <==

  Basis Set: CC-PVDZ
    Blend: CC-PVDZ
    Number of shells: 129
    Number of basis function: 267
    Number of Cartesian functions: 280
    Spherical Harmonics?: true
    Max angular momentum: 2

  ==> Pre-Iterations <==

   -------------------------------------------------------
    Irrep   Nso     Nmo     Nalpha   Nbeta   Ndocc  Nsocc
   -------------------------------------------------------
     A        267     267       0       0       0       0
   -------------------------------------------------------
    Total     267     267      48      48      48       0
   -------------------------------------------------------

  ==> Integral Setup <==

  Using integral reordering PK algorithm.
  Sizing the integral batches needed.
  Building batch lookup table.
   Calculation information:
      Number of atoms:                  30
      Number of AO shells:             129
      Number of primitives:            371
      Number of atomic orbitals:       280
      Number of basis functions:       267

      Integral cutoff                 1.00e-12
      Number of threads:                 1

	Batch   1 pq = [       0,    9405] index = [             0,44231715] size =     44231715
	Batch   2 pq = [    9405,   13301] index = [      44231715,88464951] size =     44233236
	Batch   3 pq = [   13301,   16290] index = [      88464951,132690195] size =     44225244
	Batch   4 pq = [   16290,   18810] index = [     132690195,176917455] size =     44227260
	Batch   5 pq = [   18810,   21030] index = [     176917455,221140965] size =     44223510
	Batch   6 pq = [   21030,   23037] index = [     221140965,265363203] size =     44222238
	Batch   7 pq = [   23037,   24883] index = [     265363203,309594286] size =     44231083
	Batch   8 pq = [   24883,   26601] index = [     309594286,353819901] size =     44225615
	Batch   9 pq = [   26601,   28214] index = [     353819901,398029005] size =     44209104
	Batch  10 pq = [   28214,   29740] index = [     398029005,442248670] size =     44219665
	Batch  11 pq = [   29740,   31191] index = [     442248670,486454836] size =     44206166
	Batch  12 pq = [   31191,   32578] index = [     486454836,530679331] size =     44224495
	Batch  13 pq = [   32578,   33908] index = [     530679331,574893186] size =     44213855
	Batch  14 pq = [   33908,   35188] index = [     574893186,619115266] size =     44222080
	Batch  15 pq = [   35188,   35778] index = [     619115266,640050531] size =     20935265
  Task number: 58
  Buffer size: 11059200
  Buffer per thread: 2
  We computed 31899880 shell quartets total.
  Whereas there are 35158305 unique shell quartets.

  ==> DiskJK: Disk-Based J/K Matrices <==

    J tasked:                  Yes
    K tasked:                  Yes
    wK tasked:                  No
    Memory [MiB]:              375
    Schwarz Cutoff:          1E-12

    OpenMP threads:              1

  Minimum eigenvalue in the overlap matrix is 2.3827228074E-04.
  Using Symmetric Orthogonalization.

  SCF Guess: Superposition of Atomic Densities via on-the-fly atomic UHF.

  ==> Iterations <==

                        Total Energy        Delta E     RMS |[F,P]|

   @RHF iter SAD:  -518.04354658851673   -5.18044e+02   0.00000e+00 
   @RHF iter   1:  -518.49345904258291   -4.49912e-01   2.49765e-03 DIIS
   @RHF iter   2:  -518.75207249133894   -2.58613e-01   1.11755e-03 DIIS
   @RHF iter   3:  -518.79920682444470   -4.71343e-02   2.85797e-04 DIIS
   @RHF iter   4:  -518.80338680281955   -4.17998e-03   1.29837e-04 DIIS
   @RHF iter   5:  -518.80406123483704   -6.74432e-04   1.96366e-05 DIIS
   @RHF iter   6:  -518.80409334507897   -3.21102e-05   8.71962e-06 DIIS
   @RHF iter   7:  -518.80410004123382   -6.69615e-06   3.61252e-06 DIIS
   @RHF iter   8:  -518.80410186622169   -1.82499e-06   1.51550e-06 DIIS
   @RHF iter   9:  -518.80410227457435   -4.08353e-07   6.59544e-07 DIIS
   @RHF iter  10:  -518.80410235477359   -8.01992e-08   2.96164e-07 DIIS
   @RHF iter  11:  -518.80410237329056   -1.85170e-08   1.10127e-07 DIIS
   @RHF iter  12:  -518.80410237574756   -2.45700e-09   3.95412e-08 DIIS
   @RHF iter  13:  -518.80410237592332   -1.75760e-10   1.12979e-08 DIIS
   @RHF iter  14:  -518.80410237593856   -1.52340e-11   4.27904e-09 DIIS
   @RHF iter  15:  -518.80410237595186   -1.33014e-11   2.22936e-09 DIIS
   @RHF iter  16:  -518.80410237594526    6.59384e-12   9.68135e-10 DIIS
   @RHF iter  17:  -518.80410237593901    6.25278e-12   4.46892e-10 DIIS
   @RHF iter  18:  -518.80410237594765   -8.64020e-12   1.66640e-10 DIIS
   @RHF iter  19:  -518.80410237594856   -9.09495e-13   6.26190e-11 DIIS
  Energy and wave function converged.


  ==> Post-Iterations <==

    Orbital Energies [Eh]
    ---------------------

    Doubly Occupied:                                                      

       1A    -15.601198     2A    -11.264089     3A    -11.263571  
       4A    -11.231218     5A    -11.230026     6A    -11.228737  
       7A    -11.227098     8A    -11.221288     9A    -11.221196  
      10A    -11.218016    11A    -11.212773    12A    -11.211934  
      13A    -11.211169    14A     -1.295905    15A     -1.129516  
      16A     -1.074638    17A     -1.043173    18A     -0.998842  
      19A     -0.988749    20A     -0.931889    21A     -0.917671  
      22A     -0.840383    23A     -0.804458    24A     -0.790808  
      25A     -0.753764    26A     -0.720334    27A     -0.663997  
      28A     -0.643631    29A     -0.616874    30A     -0.602834  
      31A     -0.594567    32A     -0.590537    33A     -0.585640  
      34A     -0.567609    35A     -0.553593    36A     -0.539679  
      37A     -0.539042    38A     -0.528922    39A     -0.527910  
      40A     -0.496305    41A     -0.471488    42A     -0.466889  
      43A     -0.466147    44A     -0.461805    45A     -0.454192  
      46A     -0.372793    47A     -0.295810    48A     -0.276311  

    Virtual:                                                              

      49A      0.124424    50A      0.167490    51A      0.175721  
      52A      0.182417    53A      0.190319    54A      0.209520  
      55A      0.213965    56A      0.224311    57A      0.229578  
      58A      0.240965    59A      0.249238    60A      0.258536  
      61A      0.271623    62A      0.275241    63A      0.280951  
      64A      0.284609    65A      0.289323    66A      0.302524  
      67A      0.308249    68A      0.355172    69A      0.375071  
      70A      0.382324    71A      0.386897    72A      0.406871  
      73A      0.417826    74A      0.428543    75A      0.447033  
      76A      0.477963    77A      0.480931    78A      0.502228  
      79A      0.513822    80A      0.583461    81A      0.595804  
      82A      0.605503    83A      0.610425    84A      0.622222  
      85A      0.627351    86A      0.636333    87A      0.640099  
      88A      0.662635    89A      0.669919    90A      0.701558  
      91A      0.708877    92A      0.718989    93A      0.734171  
      94A      0.735803    95A      0.742673    96A      0.744377  
      97A      0.752332    98A      0.761278    99A      0.772437  
     100A      0.779824   101A      0.788349   102A      0.801277  
     103A      0.813752   104A      0.823020   105A      0.844208  
     106A      0.846190   107A      0.868881   108A      0.874441  
     109A      0.879184   110A      0.882646   111A      0.884806  
     112A      0.893645   113A      0.900359   114A      0.904122  
     115A      0.908224   116A      0.916936   117A      0.918837  
     118A      0.923903   119A      0.933147   120A      0.947883  
     121A      0.949617   122A      0.953535   123A      0.960149  
     124A      0.979143   125A      0.985163   126A      0.994764  
     127A      1.011208   128A      1.030000   129A      1.061931  
     130A      1.081822   131A      1.094794   132A      1.117280  
     133A      1.123560   134A      1.133719   135A      1.140006  
     136A      1.156183   137A      1.168485   138A      1.171712  
     139A      1.208602   140A      1.217676   141A      1.229329  
     142A      1.239067   143A      1.254736   144A      1.269121  
     145A      1.288501   146A      1.304771   147A      1.317540  
     148A      1.329831   149A      1.351968   150A      1.362279  
     151A      1.371525   152A      1.400611   153A      1.405170  
     154A      1.442269   155A      1.466475   156A      1.483142  
     157A      1.522947   158A      1.533064   159A      1.561693  
     160A      1.581925   161A      1.586718   162A      1.631247  
     163A      1.637714   164A      1.648703   165A      1.661116  
     166A      1.666659   167A      1.686424   168A      1.694041  
     169A      1.695573   170A      1.720603   171A      1.741518  
     172A      1.762544   173A      1.780692   174A      1.787868  
     175A      1.811950   176A      1.824120   177A      1.830543  
     178A      1.861228   179A      1.868350   180A      1.877708  
     181A      1.883058   182A      1.888231   183A      1.902750  
     184A      1.909494   185A      1.918596   186A      1.920942  
     187A      1.930396   188A      1.939719   189A      1.949780  
     190A      1.956267   191A      1.964771   192A      1.968198  
     193A      1.975984   194A      1.982960   195A      1.993597  
     196A      2.004754   197A      2.007423   198A      2.013210  
     199A      2.021322   200A      2.036806   201A      2.041833  
     202A      2.045617   203A      2.073137   204A      2.086090  
     205A      2.091734   206A      2.105829   207A      2.112116  
     208A      2.123426   209A      2.138515   210A      2.142123  
     211A      2.154021   212A      2.170616   213A      2.187647  
     214A      2.196308   215A      2.225446   216A      2.239281  
     217A      2.276342   218A      2.289341   219A      2.295423  
     220A      2.302793   221A      2.318624   222A      2.327344  
     223A      2.346527   224A      2.348505   225A      2.358456  
     226A      2.391096   227A      2.428343   228A      2.452563  
     229A      2.467422   230A      2.480220   231A      2.532999  
     232A      2.543993   233A      2.580892   234A      2.587361  
     235A      2.602553   236A      2.614976   237A      2.645401  
     238A      2.653427   239A      2.657149   240A      2.679708  
     241A      2.702217   242A      2.759075   243A      2.765368  
     244A      2.769498   245A      2.774709   246A      2.781844  
     247A      2.786963   248A      2.803493   249A      2.820950  
     250A      2.832076   251A      2.862518   252A      2.882009  
     253A      2.914478   254A      2.930418   255A      2.957847  
     256A      2.972843   257A      2.977630   258A      3.042721  
     259A      3.053469   260A      3.072299   261A      3.106194  
     262A      3.121485   263A      3.206326   264A      3.313204  
     265A      3.382252   266A      3.737065   267A      3.954817  

    Final Occupation by Irrep:
              A 
    DOCC [    48 ]

  @RHF Final Energy:  -518.80410237594856

   => Energetics <=

    Nuclear Repulsion Energy =            731.6313514249715126
    One-Electron Energy =               -2152.9728665913544319
    Two-Electron Energy =                 902.5374127904344732
    Total Energy =                       -518.8041023759485597

Computation Completed


Properties will be evaluated at   0.000000,   0.000000,   0.000000 [a0]

Properties computed using the SCF density matrix

  Nuclear Dipole Moment: [e a0]
     X:   -13.2063      Y:   -12.1814      Z:     5.0344

  Electronic Dipole Moment: [e a0]
     X:    13.9440      Y:    12.5471      Z:    -4.7452

  Dipole Moment: [e a0]
     X:     0.7377      Y:     0.3657      Z:     0.2892     Total:     0.8727

  Dipole Moment: [D]
     X:     1.8751      Y:     0.9294      Z:     0.7350     Total:     2.2182


*** tstop() called on ds3 at Mon Apr 27 12:48:07 2020
Module time:
	user time   =     292.87 seconds =       4.88 minutes
	system time =     123.93 seconds =       2.07 minutes
	total time  =        523 seconds =       8.72 minutes
Total time:
	user time   =     292.87 seconds =       4.88 minutes
	system time =     123.93 seconds =       2.07 minutes
	total time  =        523 seconds =       8.72 minutes
                                     G D M A

                                 by Anthony Stone

                           version 2.2.06, 22 June 2011

               Distributed Multipoles from Gaussian wavefunctions


Starting at 12:48:7 on 27 Apr 2020  


Using SCF density matrix from file ./SSI/SSI-087LEU-096TRP-1-dimer.test.3638.fchk


                         Distributed Multipole Analysis

Standard DMA

Positions and radii in angstrom
Multipole moments in atomic units, ea_0^k for rank k

C          x = -3.345672  y = -1.838079  z =  1.905842 angstrom
           Maximum rank =  0   Radius =  0.650 angstrom
                   Q00  =  -0.078938

C          x = -2.555672  y = -2.376079  z =  3.110842 angstrom
           Maximum rank =  0   Radius =  0.650 angstrom
                   Q00  =  -0.246843

C          x = -3.553672  y = -2.850079  z =  0.773842 angstrom
           Maximum rank =  0   Radius =  0.650 angstrom
                   Q00  =  -0.248552

H          x = -4.317672  y = -1.478079  z =  2.246842 angstrom
           Maximum rank =  0   Radius =  0.325 angstrom
                   Q00  =   0.040432

H          x = -2.818672  y = -0.986079  z =  1.488842 angstrom
           Maximum rank =  0   Radius =  0.325 angstrom
                   Q00  =   0.061333

H          x = -1.702672  y = -2.959079  z =  2.762842 angstrom
           Maximum rank =  0   Radius =  0.325 angstrom
                   Q00  =   0.078019

H          x = -3.996672  y = -3.757079  z =  1.184842 angstrom
           Maximum rank =  0   Radius =  0.325 angstrom
                   Q00  =   0.071293

H          x = -3.191732  y = -3.018189  z =  3.737839 angstrom
           Maximum rank =  0   Radius =  0.325 angstrom
                   Q00  =   0.078583

H          x = -2.129222  y = -1.545709  z =  3.692757 angstrom
           Maximum rank =  0   Radius =  0.325 angstrom
                   Q00  =   0.081174

H          x = -4.242242  y = -2.458979  z =  0.010361 angstrom
           Maximum rank =  0   Radius =  0.325 angstrom
                   Q00  =   0.081943

H          x = -2.589122  y = -3.111039  z =  0.313913 angstrom
           Maximum rank =  0   Radius =  0.325 angstrom
                   Q00  =   0.082297

C          x =  2.664328  y =  0.239921  z = -3.084158 angstrom
           Maximum rank =  0   Radius =  0.650 angstrom
                   Q00  =  -0.205263

C          x =  1.175328  y =  1.082921  z =  0.256842 angstrom
           Maximum rank =  0   Radius =  0.650 angstrom
                   Q00  =   0.281296

C          x =  1.018328  y =  0.646921  z = -1.084158 angstrom
           Maximum rank =  0   Radius =  0.650 angstrom
                   Q00  =  -0.056084

C          x =  2.327328  y =  0.629921  z = -1.683158 angstrom
           Maximum rank =  0   Radius =  0.650 angstrom
                   Q00  =  -0.117716

C          x =  3.193328  y =  1.038921  z = -0.719158 angstrom
           Maximum rank =  0   Radius =  0.650 angstrom
                   Q00  =   0.069961

C          x = -1.155672  y =  0.917921  z =  0.647842 angstrom
           Maximum rank =  0   Radius =  0.650 angstrom
                   Q00  =  -0.037833

C          x =  0.105328  y =  1.225921  z =  1.123842 angstrom
           Maximum rank =  0   Radius =  0.650 angstrom
                   Q00  =  -0.119489

C          x = -1.347672  y =  0.488921  z = -0.671158 angstrom
           Maximum rank =  0   Radius =  0.650 angstrom
                   Q00  =  -0.104358

C          x = -0.273672  y =  0.352921  z = -1.545158 angstrom
           Maximum rank =  0   Radius =  0.650 angstrom
                   Q00  =  -0.099110

N          x =  2.511328  y =  1.311921  z =  0.442842 angstrom
           Maximum rank =  0   Radius =  0.650 angstrom
                   Q00  =  -0.500248

H          x = -2.010672  y =  1.053921  z =  1.295842 angstrom
           Maximum rank =  0   Radius =  0.325 angstrom
                   Q00  =   0.065593

H          x =  0.252328  y =  1.564921  z =  2.136842 angstrom
           Maximum rank =  0   Radius =  0.325 angstrom
                   Q00  =   0.073424

H          x = -2.350672  y =  0.286921  z = -1.023158 angstrom
           Maximum rank =  0   Radius =  0.325 angstrom
                   Q00  =   0.061523

H          x = -0.459672  y =  0.068921  z = -2.566158 angstrom
           Maximum rank =  0   Radius =  0.325 angstrom
                   Q00  =   0.069340

H          x =  2.924328  y =  1.722921  z =  1.277842 angstrom
           Maximum rank =  0   Radius =  0.325 angstrom
                   Q00  =   0.216963

H          x =  4.264328  y =  1.131921  z = -0.857158 angstrom
           Maximum rank =  0   Radius =  0.325 angstrom
                   Q00  =   0.101039

H          x =  3.748328  y =  0.152921  z = -3.171158 angstrom
           Maximum rank =  0   Radius =  0.325 angstrom
                   Q00  =   0.102855

H          x =  2.338328  y =  1.043921  z = -3.745158 angstrom
           Maximum rank =  0   Radius =  0.325 angstrom
                   Q00  =   0.097510

H          x =  2.201988  y = -0.701979  z = -3.414399 angstrom
           Maximum rank =  0   Radius =  0.325 angstrom
                   Q00  =   0.099852

Total multipoles referred to origin at
           x =   0.000000,  y =    0.000000,  z =    0.000000 angstrom
                   Q00  =  -0.000000

Finished at 12:48:8 on 27 Apr 2020  

  DMA results are available in the Python driver through the
	  variable('DMA DISTRIBUTED MULTIPOLES')
  and
	  variable('DMA TOTAL MULTIPOLES')
  commands.


    Psi4 stopped on: Monday, 27 April 2020 12:48PM
    Psi4 wall time for execution: 0:08:44.03

*** Psi4 exiting successfully. Buy a developer a beer!
