
    -----------------------------------------------------------------------
          Psi4: An Open-Source Ab Initio Electronic Structure Package
                               Psi4 1.3.2 release

                         Git: Rev {HEAD} ecbda83 


    R. M. Parrish, L. A. Burns, D. G. A. Smith, A. C. Simmonett,
    A. E. DePrince III, E. G. Hohenstein, U. Bozkaya, A. Yu. Sokolov,
    R. Di Remigio, R. M. Richard, J. F. Gonthier, A. M. James,
    H. R. McAlexander, A. Kumar, M. Saitow, X. Wang, B. P. Pritchard,
    P. Verma, H. F. Schaefer III, K. Patkowski, R. A. King, E. F. Valeev,
    F. A. Evangelista, J. M. Turney, T. D. Crawford, and C. D. Sherrill,
    J. Chem. Theory Comput. 13(7) pp 3185--3197 (2017).
    (doi: 10.1021/acs.jctc.7b00174)


                         Additional Contributions by
    P. Kraus, H. Kruse, M. H. Lechner, M. C. Schieber, R. A. Shaw,
    A. Alenaizan, R. Galvelis, Z. L. Glick, S. Lehtola, and J. P. Misiewicz

    -----------------------------------------------------------------------


    Psi4 started on: Monday, 27 April 2020 08:57AM

    Process ID: 1305
    Host:       ds3
    PSIDATADIR: /theoryfs2/ds/metcalf/miniconda2/envs/tf2gpu/share/psi4
    Memory:     500.0 MiB
    Threads:    1
    
  ==> Input File <==

--------------------------------------------------------------------------
import numpy as np
set {scf_type pk
basis cc-pvdz
d_convergence 10
gdma_switch   0
gdma_limit    0
gdma_origin   [ 0.0,  0.0,  0.0 ]
}
molecule test {
    units Angstrom
    0 1
    --
    0 1
    C               -1.641650700266057     3.380707007086787    -1.643839113978510
    C               -1.749650700266057     4.880707007086787    -1.617839113978510
    H               -0.997650700266057     3.062707007086787    -0.835839113978510
    H               -2.630650700266057     2.941707007086787    -1.513839113978510
    H               -1.223650700266057     3.064707007086787    -2.598839113978510
    H               -2.177650700266057     5.185707007086786    -0.663839113978510
    H               -2.411650700266057     5.187707007086788    -2.425839113978510
    H               -0.787970700266057     5.399207007086788    -1.745689113978510
    C                2.306349299733943     0.749707007086787     1.923160886021490
    C                0.531349299733943    -0.511292992913213     0.438160886021490
    C                1.616349299733943    -0.486292992913213     1.406160886021490
    C                0.129349299733943    -1.873292992913213     0.275160886021490
    C                1.825349299733943    -1.785292992913213     1.781160886021490
    C               -1.165650700266057     0.091707007086787    -1.208839113978510
    C               -1.537650700266057    -1.262292992913213    -1.339839113978510
    C               -0.142650700266057     0.475707007086787    -0.318839113978510
    C               -0.896650700266057    -2.259292992913213    -0.590839113978510
    N                0.930349299733943    -2.629292992913213     1.106160886021490
    H               -1.664650700266057     0.853707007086787    -1.791839113978510
    H               -2.327650700266057    -1.534292992913213    -2.025839113978510
    H                0.124349299733943     1.521707007086787    -0.241839113978510
    H               -1.160650700266057    -3.309292992913213    -0.660839113978510
    H                2.227349299733943     1.512707007086787     1.140160886021490
    H                3.357349299733943     0.506707007086787     2.068160886021490
    H                2.597349299733943    -2.013292992913213     2.513160886021490
    H                0.865349299733943    -3.638292992913213     1.198160886021490
    H                1.918159299733943     1.112107007086787     2.886470886021490

}
e, wfn = energy('scf', return_wfn=True)
gdma(wfn)
dmavals = variable('DMA DISTRIBUTED MULTIPOLES')
charges = np.array(dmavals)
print(charges)
np.save('SSI-132ILE-138TRP-1-dimer.npy', np.array(charges))--------------------------------------------------------------------------

*** tstart() called on ds3
*** at Mon Apr 27 08:57:09 2020

   => Loading Basis Set <=

    Name: CC-PVDZ
    Role: ORBITAL
    Keyword: BASIS
    atoms 1-2, 9-17  entry C          line   138 file /theoryfs2/ds/metcalf/miniconda2/envs/tf2gpu/share/psi4/basis/cc-pvdz.gbs 
    atoms 3-8, 19-27 entry H          line    22 file /theoryfs2/ds/metcalf/miniconda2/envs/tf2gpu/share/psi4/basis/cc-pvdz.gbs 
    atoms 18         entry N          line   168 file /theoryfs2/ds/metcalf/miniconda2/envs/tf2gpu/share/psi4/basis/cc-pvdz.gbs 


         ---------------------------------------------------------
                                   SCF
               by Justin Turney, Rob Parrish, Andy Simmonett
                          and Daniel G. A. Smith
                              RHF Reference
                        1 Threads,    500 MiB Core
         ---------------------------------------------------------

  ==> Geometry <==

    Molecular point group: c1
    Full point group: C1

    Geometry (in Angstrom), charge = 0, multiplicity = 1:

       Center              X                  Y                   Z               Mass       
    ------------   -----------------  -----------------  -----------------  -----------------
         C           -1.641650700266     3.380707007087    -1.643839113979    12.000000000000
         C           -1.749650700266     4.880707007087    -1.617839113979    12.000000000000
         H           -0.997650700266     3.062707007087    -0.835839113979     1.007825032230
         H           -2.630650700266     2.941707007087    -1.513839113979     1.007825032230
         H           -1.223650700266     3.064707007087    -2.598839113979     1.007825032230
         H           -2.177650700266     5.185707007087    -0.663839113979     1.007825032230
         H           -2.411650700266     5.187707007087    -2.425839113979     1.007825032230
         H           -0.787970700266     5.399207007087    -1.745689113979     1.007825032230
         C            2.306349299734     0.749707007087     1.923160886021    12.000000000000
         C            0.531349299734    -0.511292992913     0.438160886021    12.000000000000
         C            1.616349299734    -0.486292992913     1.406160886021    12.000000000000
         C            0.129349299734    -1.873292992913     0.275160886021    12.000000000000
         C            1.825349299734    -1.785292992913     1.781160886021    12.000000000000
         C           -1.165650700266     0.091707007087    -1.208839113979    12.000000000000
         C           -1.537650700266    -1.262292992913    -1.339839113979    12.000000000000
         C           -0.142650700266     0.475707007087    -0.318839113979    12.000000000000
         C           -0.896650700266    -2.259292992913    -0.590839113979    12.000000000000
         N            0.930349299734    -2.629292992913     1.106160886021    14.003074004430
         H           -1.664650700266     0.853707007087    -1.791839113979     1.007825032230
         H           -2.327650700266    -1.534292992913    -2.025839113979     1.007825032230
         H            0.124349299734     1.521707007087    -0.241839113979     1.007825032230
         H           -1.160650700266    -3.309292992913    -0.660839113979     1.007825032230
         H            2.227349299734     1.512707007087     1.140160886021     1.007825032230
         H            3.357349299734     0.506707007087     2.068160886021     1.007825032230
         H            2.597349299734    -2.013292992913     2.513160886021     1.007825032230
         H            0.865349299734    -3.638292992913     1.198160886021     1.007825032230
         H            1.918159299734     1.112107007087     2.886470886021     1.007825032230

  Running in c1 symmetry.

  Rotational constants: A =      0.04472  B =      0.01546  C =      0.01158 [cm^-1]
  Rotational constants: A =   1340.58577  B =    463.47650  C =    347.25388 [MHz]
  Nuclear repulsion =  640.596410929158765

  Charge       = 0
  Multiplicity = 1
  Electrons    = 88
  Nalpha       = 44
  Nbeta        = 44

  ==> Algorithm <==

  SCF Algorithm Type is PK.
  DIIS enabled.
  MOM disabled.
  Fractional occupation disabled.
  Guess Type is SAD.
  Energy threshold   = 1.00e-06
  Density threshold  = 1.00e-10
  Integral threshold = 0.00e+00

  ==> Primary Basis <==

  Basis Set: CC-PVDZ
    Blend: CC-PVDZ
    Number of shells: 117
    Number of basis function: 243
    Number of Cartesian functions: 255
    Spherical Harmonics?: true
    Max angular momentum: 2

  ==> Pre-Iterations <==

   -------------------------------------------------------
    Irrep   Nso     Nmo     Nalpha   Nbeta   Ndocc  Nsocc
   -------------------------------------------------------
     A        243     243       0       0       0       0
   -------------------------------------------------------
    Total     243     243      44      44      44       0
   -------------------------------------------------------

  ==> Integral Setup <==

  Using integral reordering PK algorithm.
  Sizing the integral batches needed.
  Building batch lookup table.
   Calculation information:
      Number of atoms:                  27
      Number of AO shells:             117
      Number of primitives:            339
      Number of atomic orbitals:       255
      Number of basis functions:       243

      Integral cutoff                 1.00e-12
      Number of threads:                 1

	Batch   1 pq = [       0,    9405] index = [             0,44231715] size =     44231715
	Batch   2 pq = [    9405,   13301] index = [      44231715,88464951] size =     44233236
	Batch   3 pq = [   13301,   16290] index = [      88464951,132690195] size =     44225244
	Batch   4 pq = [   16290,   18810] index = [     132690195,176917455] size =     44227260
	Batch   5 pq = [   18810,   21030] index = [     176917455,221140965] size =     44223510
	Batch   6 pq = [   21030,   23037] index = [     221140965,265363203] size =     44222238
	Batch   7 pq = [   23037,   24883] index = [     265363203,309594286] size =     44231083
	Batch   8 pq = [   24883,   26601] index = [     309594286,353819901] size =     44225615
	Batch   9 pq = [   26601,   28214] index = [     353819901,398029005] size =     44209104
	Batch  10 pq = [   28214,   29646] index = [     398029005,439457481] size =     41428476
  Task number: 40
  Buffer size: 11059200
  Buffer per thread: 2
  We computed 20874389 shell quartets total.
  Whereas there are 23829156 unique shell quartets.

  ==> DiskJK: Disk-Based J/K Matrices <==

    J tasked:                  Yes
    K tasked:                  Yes
    wK tasked:                  No
    Memory [MiB]:              375
    Schwarz Cutoff:          1E-12

    OpenMP threads:              1

  Minimum eigenvalue in the overlap matrix is 2.5598308492E-04.
  Using Symmetric Orthogonalization.

  SCF Guess: Superposition of Atomic Densities via on-the-fly atomic UHF.

  ==> Iterations <==

                        Total Energy        Delta E     RMS |[F,P]|

   @RHF iter SAD:  -478.87842214092268   -4.78878e+02   0.00000e+00 
   @RHF iter   1:  -479.48090048535130   -6.02478e-01   2.57583e-03 DIIS
   @RHF iter   2:  -479.71151447665488   -2.30614e-01   1.12821e-03 DIIS
   @RHF iter   3:  -479.75153578628885   -4.00213e-02   3.04069e-04 DIIS
   @RHF iter   4:  -479.75539980742059   -3.86402e-03   1.40236e-04 DIIS
   @RHF iter   5:  -479.75605906519445   -6.59258e-04   2.03405e-05 DIIS
   @RHF iter   6:  -479.75609045699298   -3.13918e-05   9.46936e-06 DIIS
   @RHF iter   7:  -479.75609705245137   -6.59546e-06   4.08018e-06 DIIS
   @RHF iter   8:  -479.75609904887699   -1.99643e-06   1.64312e-06 DIIS
   @RHF iter   9:  -479.75609946645488   -4.17578e-07   7.21062e-07 DIIS
   @RHF iter  10:  -479.75609954934629   -8.28914e-08   3.38866e-07 DIIS
   @RHF iter  11:  -479.75609956911200   -1.97657e-08   1.23560e-07 DIIS
   @RHF iter  12:  -479.75609957174277   -2.63077e-09   4.33299e-08 DIIS
   @RHF iter  13:  -479.75609957194763   -2.04864e-10   1.27833e-08 DIIS
   @RHF iter  14:  -479.75609957195775   -1.01181e-11   5.98459e-09 DIIS
   @RHF iter  15:  -479.75609957196730   -9.54969e-12   2.95594e-09 DIIS
   @RHF iter  16:  -479.75609957196718    1.13687e-13   1.20133e-09 DIIS
   @RHF iter  17:  -479.75609957196832   -1.13687e-12   4.92798e-10 DIIS
   @RHF iter  18:  -479.75609957196536    2.95586e-12   1.87644e-10 DIIS
   @RHF iter  19:  -479.75609957196758   -2.21689e-12   6.72422e-11 DIIS
  Energy and wave function converged.


  ==> Post-Iterations <==

    Orbital Energies [Eh]
    ---------------------

    Doubly Occupied:                                                      

       1A    -15.601970     2A    -11.267401     3A    -11.266106  
       4A    -11.232927     5A    -11.232904     6A    -11.231718  
       7A    -11.229424     8A    -11.224151     9A    -11.221654  
      10A    -11.221529    11A    -11.214173    12A    -11.212933  
      13A     -1.281587    14A     -1.118070    15A     -1.069014  
      16A     -1.025536    17A     -0.990524    18A     -0.981774  
      19A     -0.930318    20A     -0.836865    21A     -0.833319  
      22A     -0.799622    23A     -0.746395    24A     -0.714509  
      25A     -0.661809    26A     -0.636544    27A     -0.607491  
      28A     -0.600225    29A     -0.597684    30A     -0.586137  
      31A     -0.585183    32A     -0.565689    33A     -0.549951  
      34A     -0.535263    35A     -0.526035    36A     -0.506684  
      37A     -0.491396    38A     -0.482997    39A     -0.480958  
      40A     -0.466254    41A     -0.454332    42A     -0.369385  
      43A     -0.291549    44A     -0.274309  

    Virtual:                                                              

      45A      0.122501    46A      0.167991    47A      0.180028  
      48A      0.183688    49A      0.194641    50A      0.209006  
      51A      0.215915    52A      0.227522    53A      0.235688  
      54A      0.250154    55A      0.255671    56A      0.264333  
      57A      0.272082    58A      0.286411    59A      0.293572  
      60A      0.297087    61A      0.325539    62A      0.365265  
      63A      0.369628    64A      0.380857    65A      0.393676  
      66A      0.411145    67A      0.428759    68A      0.452464  
      69A      0.470672    70A      0.489554    71A      0.504378  
      72A      0.508323    73A      0.590248    74A      0.596066  
      75A      0.604087    76A      0.610897    77A      0.634896  
      78A      0.642166    79A      0.653926    80A      0.666205  
      81A      0.685480    82A      0.701461    83A      0.702721  
      84A      0.716292    85A      0.723094    86A      0.728913  
      87A      0.738672    88A      0.743032    89A      0.755134  
      90A      0.760784    91A      0.767012    92A      0.783281  
      93A      0.790456    94A      0.798844    95A      0.815377  
      96A      0.845286    97A      0.852080    98A      0.860395  
      99A      0.878309   100A      0.883446   101A      0.887221  
     102A      0.894312   103A      0.898865   104A      0.903855  
     105A      0.916436   106A      0.924286   107A      0.927117  
     108A      0.937818   109A      0.946606   110A      0.952297  
     111A      0.955978   112A      0.978407   113A      0.992706  
     114A      1.011819   115A      1.013522   116A      1.027908  
     117A      1.051517   118A      1.078998   119A      1.092946  
     120A      1.124277   121A      1.135694   122A      1.137953  
     123A      1.144687   124A      1.145892   125A      1.175289  
     126A      1.192151   127A      1.210810   128A      1.227765  
     129A      1.234757   130A      1.244524   131A      1.269301  
     132A      1.275975   133A      1.280521   134A      1.287639  
     135A      1.318085   136A      1.322761   137A      1.339042  
     138A      1.354872   139A      1.380548   140A      1.443709  
     141A      1.463100   142A      1.473549   143A      1.510312  
     144A      1.519099   145A      1.535466   146A      1.573559  
     147A      1.596420   148A      1.607924   149A      1.613494  
     150A      1.639349   151A      1.656658   152A      1.682284  
     153A      1.688388   154A      1.698009   155A      1.701421  
     156A      1.736985   157A      1.755714   158A      1.770601  
     159A      1.778100   160A      1.810221   161A      1.823953  
     162A      1.831158   163A      1.860001   164A      1.862009  
     165A      1.879249   166A      1.888656   167A      1.897145  
     168A      1.902926   169A      1.913544   170A      1.920593  
     171A      1.925250   172A      1.937422   173A      1.939442  
     174A      1.957928   175A      1.961619   176A      1.965302  
     177A      1.975446   178A      1.978599   179A      1.988965  
     180A      2.005688   181A      2.027033   182A      2.033560  
     183A      2.036128   184A      2.064486   185A      2.077446  
     186A      2.082179   187A      2.094934   188A      2.104174  
     189A      2.113113   190A      2.127824   191A      2.129764  
     192A      2.143402   193A      2.165623   194A      2.172907  
     195A      2.224489   196A      2.242170   197A      2.253735  
     198A      2.273740   199A      2.294060   200A      2.303438  
     201A      2.332888   202A      2.343503   203A      2.348088  
     204A      2.379379   205A      2.406856   206A      2.432009  
     207A      2.443555   208A      2.462067   209A      2.468742  
     210A      2.491570   211A      2.523756   212A      2.560617  
     213A      2.563034   214A      2.582118   215A      2.600655  
     216A      2.622443   217A      2.644918   218A      2.676192  
     219A      2.711018   220A      2.758170   221A      2.763156  
     222A      2.772872   223A      2.786415   224A      2.790103  
     225A      2.828631   226A      2.839599   227A      2.844184  
     228A      2.865399   229A      2.873575   230A      2.875810  
     231A      2.904549   232A      2.951610   233A      2.961143  
     234A      2.984782   235A      2.994508   236A      3.016317  
     237A      3.059569   238A      3.096505   239A      3.186928  
     240A      3.264440   241A      3.348335   242A      3.715842  
     243A      3.907560  

    Final Occupation by Irrep:
              A 
    DOCC [    44 ]

  @RHF Final Energy:  -479.75609957196758

   => Energetics <=

    Nuclear Repulsion Energy =            640.5964109291587647
    One-Electron Energy =               -1919.1964267117357394
    Two-Electron Energy =                 798.8439162106094500
    Total Energy =                       -479.7560995719675248

Computation Completed


Properties will be evaluated at   0.000000,   0.000000,   0.000000 [a0]

Properties computed using the SCF density matrix

  Nuclear Dipole Moment: [e a0]
     X:    -4.0266      Y:    18.6197      Z:    -4.4076

  Electronic Dipole Moment: [e a0]
     X:     4.3146      Y:   -19.1816      Z:     4.7834

  Dipole Moment: [e a0]
     X:     0.2881      Y:    -0.5619      Z:     0.3758     Total:     0.7348

  Dipole Moment: [D]
     X:     0.7322      Y:    -1.4281      Z:     0.9552     Total:     1.8676


*** tstop() called on ds3 at Mon Apr 27 09:09:00 2020
Module time:
	user time   =     163.27 seconds =       2.72 minutes
	system time =      72.36 seconds =       1.21 minutes
	total time  =        711 seconds =      11.85 minutes
Total time:
	user time   =     163.27 seconds =       2.72 minutes
	system time =      72.36 seconds =       1.21 minutes
	total time  =        711 seconds =      11.85 minutes
                                     G D M A

                                 by Anthony Stone

                           version 2.2.06, 22 June 2011

               Distributed Multipoles from Gaussian wavefunctions


Starting at 9:9:0 on 27 Apr 2020    


Using SCF density matrix from file ./SSI/SSI-132ILE-138TRP-1-dimer.test.1305.fchk


                         Distributed Multipole Analysis

Standard DMA

Positions and radii in angstrom
Multipole moments in atomic units, ea_0^k for rank k

C          x = -1.641651  y =  3.380707  z = -1.643839 angstrom
           Maximum rank =  0   Radius =  0.650 angstrom
                   Q00  =  -0.248802

C          x = -1.749651  y =  4.880707  z = -1.617839 angstrom
           Maximum rank =  0   Radius =  0.650 angstrom
                   Q00  =  -0.216903

H          x = -0.997651  y =  3.062707  z = -0.835839 angstrom
           Maximum rank =  0   Radius =  0.325 angstrom
                   Q00  =   0.079190

H          x = -2.630651  y =  2.941707  z = -1.513839 angstrom
           Maximum rank =  0   Radius =  0.325 angstrom
                   Q00  =   0.079102

H          x = -1.223651  y =  3.064707  z = -2.598839 angstrom
           Maximum rank =  0   Radius =  0.325 angstrom
                   Q00  =   0.075386

H          x = -2.177651  y =  5.185707  z = -0.663839 angstrom
           Maximum rank =  0   Radius =  0.325 angstrom
                   Q00  =   0.077971

H          x = -2.411651  y =  5.187707  z = -2.425839 angstrom
           Maximum rank =  0   Radius =  0.325 angstrom
                   Q00  =   0.076637

H          x = -0.787971  y =  5.399207  z = -1.745689 angstrom
           Maximum rank =  0   Radius =  0.325 angstrom
                   Q00  =   0.078781

C          x =  2.306349  y =  0.749707  z =  1.923161 angstrom
           Maximum rank =  0   Radius =  0.650 angstrom
                   Q00  =  -0.209069

C          x =  0.531349  y = -0.511293  z =  0.438161 angstrom
           Maximum rank =  0   Radius =  0.650 angstrom
                   Q00  =  -0.049133

C          x =  1.616349  y = -0.486293  z =  1.406161 angstrom
           Maximum rank =  0   Radius =  0.650 angstrom
                   Q00  =  -0.123878

C          x =  0.129349  y = -1.873293  z =  0.275161 angstrom
           Maximum rank =  0   Radius =  0.650 angstrom
                   Q00  =   0.288738

C          x =  1.825349  y = -1.785293  z =  1.781161 angstrom
           Maximum rank =  0   Radius =  0.650 angstrom
                   Q00  =   0.076581

C          x = -1.165651  y =  0.091707  z = -1.208839 angstrom
           Maximum rank =  0   Radius =  0.650 angstrom
                   Q00  =  -0.093266

C          x = -1.537651  y = -1.262293  z = -1.339839 angstrom
           Maximum rank =  0   Radius =  0.650 angstrom
                   Q00  =  -0.066081

C          x = -0.142651  y =  0.475707  z = -0.318839 angstrom
           Maximum rank =  0   Radius =  0.650 angstrom
                   Q00  =  -0.101634

C          x = -0.896651  y = -2.259293  z = -0.590839 angstrom
           Maximum rank =  0   Radius =  0.650 angstrom
                   Q00  =  -0.126820

N          x =  0.930349  y = -2.629293  z =  1.106161 angstrom
           Maximum rank =  0   Radius =  0.650 angstrom
                   Q00  =  -0.509615

H          x = -1.664651  y =  0.853707  z = -1.791839 angstrom
           Maximum rank =  0   Radius =  0.325 angstrom
                   Q00  =   0.067017

H          x = -2.327651  y = -1.534293  z = -2.025839 angstrom
           Maximum rank =  0   Radius =  0.325 angstrom
                   Q00  =   0.066490

H          x =  0.124349  y =  1.521707  z = -0.241839 angstrom
           Maximum rank =  0   Radius =  0.325 angstrom
                   Q00  =   0.070171

H          x = -1.160651  y = -3.309293  z = -0.660839 angstrom
           Maximum rank =  0   Radius =  0.325 angstrom
                   Q00  =   0.073981

H          x =  2.227349  y =  1.512707  z =  1.140161 angstrom
           Maximum rank =  0   Radius =  0.325 angstrom
                   Q00  =   0.105419

H          x =  3.357349  y =  0.506707  z =  2.068161 angstrom
           Maximum rank =  0   Radius =  0.325 angstrom
                   Q00  =   0.102703

H          x =  2.597349  y = -2.013293  z =  2.513161 angstrom
           Maximum rank =  0   Radius =  0.325 angstrom
                   Q00  =   0.104867

H          x =  0.865349  y = -3.638293  z =  1.198161 angstrom
           Maximum rank =  0   Radius =  0.325 angstrom
                   Q00  =   0.218848

H          x =  1.918159  y =  1.112107  z =  2.886471 angstrom
           Maximum rank =  0   Radius =  0.325 angstrom
                   Q00  =   0.103319

Total multipoles referred to origin at
           x =   0.000000,  y =    0.000000,  z =    0.000000 angstrom
                   Q00  =  -0.000000

Finished at 9:9:0 on 27 Apr 2020    

  DMA results are available in the Python driver through the
	  variable('DMA DISTRIBUTED MULTIPOLES')
  and
	  variable('DMA TOTAL MULTIPOLES')
  commands.


    Psi4 stopped on: Monday, 27 April 2020 09:09AM
    Psi4 wall time for execution: 0:11:51.31

*** Psi4 exiting successfully. Buy a developer a beer!
