
    -----------------------------------------------------------------------
          Psi4: An Open-Source Ab Initio Electronic Structure Package
                               Psi4 1.3.2 release

                         Git: Rev {HEAD} ecbda83 


    R. M. Parrish, L. A. Burns, D. G. A. Smith, A. C. Simmonett,
    A. E. DePrince III, E. G. Hohenstein, U. Bozkaya, A. Yu. Sokolov,
    R. Di Remigio, R. M. Richard, J. F. Gonthier, A. M. James,
    H. R. McAlexander, A. Kumar, M. Saitow, X. Wang, B. P. Pritchard,
    P. Verma, H. F. Schaefer III, K. Patkowski, R. A. King, E. F. Valeev,
    F. A. Evangelista, J. M. Turney, T. D. Crawford, and C. D. Sherrill,
    J. Chem. Theory Comput. 13(7) pp 3185--3197 (2017).
    (doi: 10.1021/acs.jctc.7b00174)


                         Additional Contributions by
    P. Kraus, H. Kruse, M. H. Lechner, M. C. Schieber, R. A. Shaw,
    A. Alenaizan, R. Galvelis, Z. L. Glick, S. Lehtola, and J. P. Misiewicz

    -----------------------------------------------------------------------


    Psi4 started on: Sunday, 26 April 2020 08:56PM

    Process ID: 10751
    Host:       ds3
    PSIDATADIR: /theoryfs2/ds/metcalf/miniconda2/envs/tf2gpu/share/psi4
    Memory:     500.0 MiB
    Threads:    1
    
  ==> Input File <==

--------------------------------------------------------------------------
import numpy as np
set {scf_type pk
basis cc-pvdz
d_convergence 10
gdma_switch   0
gdma_limit    0
gdma_origin   [ 0.0,  0.0,  0.0 ]
}
molecule test {
    units Angstrom
    0 1
    --
    0 1
    C                3.615548583222951    -4.207897408270804    -0.695640898947746
    C                2.265548583222951    -1.145897408270803     0.946359101052254
    C                2.407548583222951    -2.558897408270803     0.901359101052254
    C                3.201548583222951    -2.857897408270804    -0.240640898947746
    C                3.510548583222951    -1.676897408270803    -0.818640898947746
    C                1.520548583222951    -0.510897408270803     1.917359101052254
    C                0.919548583222951    -1.295897408270803     2.873359101052253
    C                1.016548583222951    -2.695897408270803     2.845359101052254
    C                1.762548583222951    -3.338897408270803     1.865359101052254
    N                2.947548583222951    -0.639897408270803    -0.117640898947746
    H                1.439548583222951     0.563102591729197     1.941359101052254
    H                0.334548583222951    -0.829897408270803     3.655359101052254
    H                3.082548583222951     0.341102591729197    -0.339640898947746
    H                0.517548583222951    -3.278897408270803     3.608359101052254
    H                4.126548583222951    -1.565897408270803    -1.706640898947746
    H                1.877548583222951    -4.410897408270803     1.878359101052254
    H                3.657548583222951    -4.864897408270804     0.174359101052254
    H                4.617548583222951    -4.154897408270804    -1.124640898947746
    H                2.915218583222951    -4.627667408270803    -1.432750898947746
    C               -0.399451416777049     3.003102591729197     1.163359101052254
    C               -0.276451416777049     1.471102591729197    -0.879640898947746
    C               -0.948451416777049     2.327102591729197    -0.052640898947746
    C               -2.367451416777049     1.544102591729197    -1.686640898947746
    C               -2.309451416777049     2.374102591729197    -0.540640898947746
    C               -3.534451416777049     1.368102591729197    -2.420640898947746
    C               -3.480451416777049     3.050102591729197    -0.150640898947746
    C               -4.673451416777048     2.052102591729197    -2.020640898947746
    C               -4.659451416777049     2.857102591729197    -0.875640898947746
    N               -1.118451416777049     1.008102591729197    -1.858640898947746
    H                0.761548583222951     1.182102591729197    -0.758640898947746
    H               -0.857451416777049     0.299102591729197    -2.541640898947746
    H                0.447548583222951     2.418102591729197     1.511359101052254
    H               -1.167451416777049     2.957102591729197     1.930359101052254
    H               -3.549451416777049     0.727102591729197    -3.290640898947746
    H               -3.475451416777049     3.687102591729197     0.718359101052254
    H               -5.592451416777049     1.922102591729197    -2.575640898947746
    H               -5.564451416777048     3.363102591729197    -0.576640898947746
    H               -0.061931416777049     4.040332591729197     1.021089101052254

}
e, wfn = energy('scf', return_wfn=True)
gdma(wfn)
dmavals = variable('DMA DISTRIBUTED MULTIPOLES')
charges = np.array(dmavals)
print(charges)
np.save('SSI-191TRP-229TRP-1-dimer.npy', np.array(charges))--------------------------------------------------------------------------

*** tstart() called on ds3
*** at Sun Apr 26 20:56:24 2020

   => Loading Basis Set <=

    Name: CC-PVDZ
    Role: ORBITAL
    Keyword: BASIS
    atoms 1-9, 20-28   entry C          line   138 file /theoryfs2/ds/metcalf/miniconda2/envs/tf2gpu/share/psi4/basis/cc-pvdz.gbs 
    atoms 10, 29       entry N          line   168 file /theoryfs2/ds/metcalf/miniconda2/envs/tf2gpu/share/psi4/basis/cc-pvdz.gbs 
    atoms 11-19, 30-38 entry H          line    22 file /theoryfs2/ds/metcalf/miniconda2/envs/tf2gpu/share/psi4/basis/cc-pvdz.gbs 


         ---------------------------------------------------------
                                   SCF
               by Justin Turney, Rob Parrish, Andy Simmonett
                          and Daniel G. A. Smith
                              RHF Reference
                        1 Threads,    500 MiB Core
         ---------------------------------------------------------

  ==> Geometry <==

    Molecular point group: c1
    Full point group: C1

    Geometry (in Angstrom), charge = 0, multiplicity = 1:

       Center              X                  Y                   Z               Mass       
    ------------   -----------------  -----------------  -----------------  -----------------
         C            3.615548583223    -4.207897408271    -0.695640898948    12.000000000000
         C            2.265548583223    -1.145897408271     0.946359101052    12.000000000000
         C            2.407548583223    -2.558897408271     0.901359101052    12.000000000000
         C            3.201548583223    -2.857897408271    -0.240640898948    12.000000000000
         C            3.510548583223    -1.676897408271    -0.818640898948    12.000000000000
         C            1.520548583223    -0.510897408271     1.917359101052    12.000000000000
         C            0.919548583223    -1.295897408271     2.873359101052    12.000000000000
         C            1.016548583223    -2.695897408271     2.845359101052    12.000000000000
         C            1.762548583223    -3.338897408271     1.865359101052    12.000000000000
         N            2.947548583223    -0.639897408271    -0.117640898948    14.003074004430
         H            1.439548583223     0.563102591729     1.941359101052     1.007825032230
         H            0.334548583223    -0.829897408271     3.655359101052     1.007825032230
         H            3.082548583223     0.341102591729    -0.339640898948     1.007825032230
         H            0.517548583223    -3.278897408271     3.608359101052     1.007825032230
         H            4.126548583223    -1.565897408271    -1.706640898948     1.007825032230
         H            1.877548583223    -4.410897408271     1.878359101052     1.007825032230
         H            3.657548583223    -4.864897408271     0.174359101052     1.007825032230
         H            4.617548583223    -4.154897408271    -1.124640898948     1.007825032230
         H            2.915218583223    -4.627667408271    -1.432750898948     1.007825032230
         C           -0.399451416777     3.003102591729     1.163359101052    12.000000000000
         C           -0.276451416777     1.471102591729    -0.879640898948    12.000000000000
         C           -0.948451416777     2.327102591729    -0.052640898948    12.000000000000
         C           -2.367451416777     1.544102591729    -1.686640898948    12.000000000000
         C           -2.309451416777     2.374102591729    -0.540640898948    12.000000000000
         C           -3.534451416777     1.368102591729    -2.420640898948    12.000000000000
         C           -3.480451416777     3.050102591729    -0.150640898948    12.000000000000
         C           -4.673451416777     2.052102591729    -2.020640898948    12.000000000000
         C           -4.659451416777     2.857102591729    -0.875640898948    12.000000000000
         N           -1.118451416777     1.008102591729    -1.858640898948    14.003074004430
         H            0.761548583223     1.182102591729    -0.758640898948     1.007825032230
         H           -0.857451416777     0.299102591729    -2.541640898948     1.007825032230
         H            0.447548583223     2.418102591729     1.511359101052     1.007825032230
         H           -1.167451416777     2.957102591729     1.930359101052     1.007825032230
         H           -3.549451416777     0.727102591729    -3.290640898948     1.007825032230
         H           -3.475451416777     3.687102591729     0.718359101052     1.007825032230
         H           -5.592451416777     1.922102591729    -2.575640898948     1.007825032230
         H           -5.564451416777     3.363102591729    -0.576640898948     1.007825032230
         H           -0.061931416777     4.040332591729     1.021089101052     1.007825032230

  Running in c1 symmetry.

  Rotational constants: A =      0.02186  B =      0.00481  C =      0.00456 [cm^-1]
  Rotational constants: A =    655.24465  B =    144.33425  C =    136.64179 [MHz]
  Nuclear repulsion = 1363.692096082281523

  Charge       = 0
  Multiplicity = 1
  Electrons    = 140
  Nalpha       = 70
  Nbeta        = 70

  ==> Algorithm <==

  SCF Algorithm Type is PK.
  DIIS enabled.
  MOM disabled.
  Fractional occupation disabled.
  Guess Type is SAD.
  Energy threshold   = 1.00e-06
  Density threshold  = 1.00e-10
  Integral threshold = 0.00e+00

  ==> Primary Basis <==

  Basis Set: CC-PVDZ
    Blend: CC-PVDZ
    Number of shells: 174
    Number of basis function: 370
    Number of Cartesian functions: 390
    Spherical Harmonics?: true
    Max angular momentum: 2

  ==> Pre-Iterations <==

   -------------------------------------------------------
    Irrep   Nso     Nmo     Nalpha   Nbeta   Ndocc  Nsocc
   -------------------------------------------------------
     A        370     370       0       0       0       0
   -------------------------------------------------------
    Total     370     370      70      70      70       0
   -------------------------------------------------------

  ==> Integral Setup <==

  Using Yoshimine PK algorithm.
  Sizing the integral batches needed.
  Building batch lookup table.
   Calculation information:
      Number of atoms:                  38
      Number of AO shells:             174
      Number of primitives:            530
      Number of atomic orbitals:       390
      Number of basis functions:       370

      Integral cutoff                 1.00e-12
      Number of threads:                 1

	Batch   1 pq = [       0,    9405] index = [             0,44231715] size =     44231715
	Batch   2 pq = [    9405,   13301] index = [      44231715,88464951] size =     44233236
	Batch   3 pq = [   13301,   16290] index = [      88464951,132690195] size =     44225244
	Batch   4 pq = [   16290,   18810] index = [     132690195,176917455] size =     44227260
	Batch   5 pq = [   18810,   21030] index = [     176917455,221140965] size =     44223510
	Batch   6 pq = [   21030,   23037] index = [     221140965,265363203] size =     44222238
	Batch   7 pq = [   23037,   24883] index = [     265363203,309594286] size =     44231083
	Batch   8 pq = [   24883,   26601] index = [     309594286,353819901] size =     44225615
	Batch   9 pq = [   26601,   28214] index = [     353819901,398029005] size =     44209104
	Batch  10 pq = [   28214,   29740] index = [     398029005,442248670] size =     44219665
	Batch  11 pq = [   29740,   31191] index = [     442248670,486454836] size =     44206166
	Batch  12 pq = [   31191,   32578] index = [     486454836,530679331] size =     44224495
	Batch  13 pq = [   32578,   33908] index = [     530679331,574893186] size =     44213855
	Batch  14 pq = [   33908,   35188] index = [     574893186,619115266] size =     44222080
	Batch  15 pq = [   35188,   36423] index = [     619115266,663335676] size =     44220410
	Batch  16 pq = [   36423,   37617] index = [     663335676,707538153] size =     44202477
	Batch  17 pq = [   37617,   38775] index = [     707538153,751769700] size =     44231547
	Batch  18 pq = [   38775,   39899] index = [     751769700,795985050] size =     44215350
	Batch  19 pq = [   39899,   40992] index = [     795985050,840192528] size =     44207478
	Batch  20 pq = [   40992,   42057] index = [     840192528,884416653] size =     44224125
	Batch  21 pq = [   42057,   43095] index = [     884416653,928611060] size =     44194407
	Batch  22 pq = [   43095,   44109] index = [     928611060,972823995] size =     44212935
	Batch  23 pq = [   44109,   45100] index = [     972823995,1017027550] size =     44203555
	Batch  24 pq = [   45100,   46070] index = [    1017027550,1061245485] size =     44217935
	Batch  25 pq = [   46070,   47020] index = [    1061245485,1105463710] size =     44218225
	Batch  26 pq = [   47020,   47951] index = [    1105463710,1149673176] size =     44209466
	Batch  27 pq = [   47951,   48864] index = [    1149673176,1193869680] size =     44196504
	Batch  28 pq = [   48864,   49761] index = [    1193869680,1238103441] size =     44233761
	Batch  29 pq = [   49761,   50642] index = [    1238103441,1282331403] size =     44227962
	Batch  30 pq = [   50642,   51508] index = [    1282331403,1326562786] size =     44231383
	Batch  31 pq = [   51508,   52359] index = [    1326562786,1370758620] size =     44195834
	Batch  32 pq = [   52359,   53197] index = [    1370758620,1414987003] size =     44228383
	Batch  33 pq = [   53197,   54022] index = [    1414987003,1459215253] size =     44228250
	Batch  34 pq = [   54022,   54834] index = [    1459215253,1503411195] size =     44195942
	Batch  35 pq = [   54834,   55634] index = [    1503411195,1547598795] size =     44187600
	Batch  36 pq = [   55634,   56423] index = [    1547598795,1591805676] size =     44206881
	Batch  37 pq = [   56423,   57201] index = [    1591805676,1636005801] size =     44200125
	Batch  38 pq = [   57201,   57969] index = [    1636005801,1680231465] size =     44225664
	Batch  39 pq = [   57969,   58727] index = [    1680231465,1724459628] size =     44228163
	Batch  40 pq = [   58727,   59475] index = [    1724459628,1768667550] size =     44207922
	Batch  41 pq = [   59475,   60214] index = [    1768667550,1812893005] size =     44225455
	Batch  42 pq = [   60214,   60944] index = [    1812893005,1857116040] size =     44223035
	Batch  43 pq = [   60944,   61665] index = [    1857116040,1901316945] size =     44200905
	Batch  44 pq = [   61665,   62378] index = [    1901316945,1945538631] size =     44221686
	Batch  45 pq = [   62378,   63083] index = [    1945538631,1989763986] size =     44225355
	Batch  46 pq = [   63083,   63780] index = [    1989763986,2033976090] size =     44212104
	Batch  47 pq = [   63780,   64469] index = [    2033976090,2078158215] size =     44182125
	Batch  48 pq = [   64469,   65151] index = [    2078158215,2122358976] size =     44200761
	Batch  49 pq = [   65151,   65826] index = [    2122358976,2166564051] size =     44205075
	Batch  50 pq = [   65826,   66494] index = [    2166564051,2210759265] size =     44195214
	Batch  51 pq = [   66494,   67155] index = [    2210759265,2254930590] size =     44171325
	Batch  52 pq = [   67155,   67810] index = [    2254930590,2299131955] size =     44201365
	Batch  53 pq = [   67810,   68459] index = [    2299131955,2343351570] size =     44219615
	Batch  54 pq = [   68459,   68635] index = [    2343351570,2355415930] size =     12064360
  ==> DiskJK: Disk-Based J/K Matrices <==

    J tasked:                  Yes
    K tasked:                  Yes
    wK tasked:                  No
    Memory [MiB]:              375
    Schwarz Cutoff:          1E-12

    OpenMP threads:              1

  Minimum eigenvalue in the overlap matrix is 2.2870684251E-04.
  Using Symmetric Orthogonalization.

  SCF Guess: Superposition of Atomic Densities via on-the-fly atomic UHF.

  ==> Iterations <==

                        Total Energy        Delta E     RMS |[F,P]|

   @RHF iter SAD:  -800.84115878222269   -8.00841e+02   0.00000e+00 
   @RHF iter   1:  -800.66218979546409    1.78969e-01   2.04582e-03 DIIS
   @RHF iter   2:  -800.99659449912940   -3.34405e-01   9.39458e-04 DIIS
   @RHF iter   3:  -801.05966063418725   -6.30661e-02   2.67043e-04 DIIS
   @RHF iter   4:  -801.06602168563438   -6.36105e-03   1.13740e-04 DIIS
   @RHF iter   5:  -801.06703681260956   -1.01513e-03   1.66388e-05 DIIS
   @RHF iter   6:  -801.06708583091154   -4.90183e-05   8.42706e-06 DIIS
   @RHF iter   7:  -801.06709773499483   -1.19041e-05   3.37007e-06 DIIS
   @RHF iter   8:  -801.06710090475065   -3.16976e-06   1.22805e-06 DIIS
   @RHF iter   9:  -801.06710139234042   -4.87590e-07   5.68881e-07 DIIS
   @RHF iter  10:  -801.06710149709693   -1.04757e-07   2.67704e-07 DIIS
   @RHF iter  11:  -801.06710152818096   -3.10840e-08   9.84142e-08 DIIS
   @RHF iter  12:  -801.06710153170445   -3.52350e-09   3.61717e-08 DIIS
   @RHF iter  13:  -801.06710153196002   -2.55568e-10   1.19459e-08 DIIS
   @RHF iter  14:  -801.06710153197957   -1.95541e-11   4.31726e-09 DIIS
   @RHF iter  15:  -801.06710153198014   -5.68434e-13   1.82566e-09 DIIS
   @RHF iter  16:  -801.06710153198128   -1.13687e-12   8.53279e-10 DIIS
   @RHF iter  17:  -801.06710153198514   -3.86535e-12   4.27153e-10 DIIS
   @RHF iter  18:  -801.06710153198594   -7.95808e-13   1.47857e-10 DIIS
   @RHF iter  19:  -801.06710153199072   -4.77485e-12   5.88734e-11 DIIS
  Energy and wave function converged.


  ==> Post-Iterations <==

    Orbital Energies [Eh]
    ---------------------

    Doubly Occupied:                                                      

       1A    -15.607165     2A    -15.600597     3A    -11.265174  
       4A    -11.264672     5A    -11.264280     6A    -11.262619  
       7A    -11.231737     8A    -11.231012     9A    -11.229660  
      10A    -11.229345    11A    -11.228526    12A    -11.228367  
      13A    -11.227930    14A    -11.227907    15A    -11.222262  
      16A    -11.221586    17A    -11.221271    18A    -11.220840  
      19A    -11.218781    20A    -11.217443    21A     -1.304738  
      22A     -1.294396    23A     -1.132999    24A     -1.126183  
      25A     -1.082966    26A     -1.071474    27A     -1.002651  
      28A     -0.995341    29A     -0.990174    30A     -0.988515  
      31A     -0.937382    32A     -0.931253    33A     -0.843323  
      34A     -0.839353    35A     -0.808988    36A     -0.801620  
      37A     -0.757545    38A     -0.751680    39A     -0.726080  
      40A     -0.718525    41A     -0.666939    42A     -0.663037  
      43A     -0.644798    44A     -0.642369    45A     -0.609365  
      46A     -0.602104    47A     -0.599681    48A     -0.595708  
      49A     -0.591391    50A     -0.587932    51A     -0.571135  
      52A     -0.569456    53A     -0.557520    54A     -0.554050  
      55A     -0.542539    56A     -0.537260    57A     -0.528111  
      58A     -0.527104    59A     -0.498260    60A     -0.494488  
      61A     -0.475021    62A     -0.469144    63A     -0.464950  
      64A     -0.460115    65A     -0.378940    66A     -0.369973  
      67A     -0.298096    68A     -0.294917    69A     -0.278577  
      70A     -0.273502  

    Virtual:                                                              

      71A      0.121804    72A      0.127828    73A      0.160691  
      74A      0.168512    75A      0.170982    76A      0.181071  
      77A      0.187329    78A      0.191656    79A      0.204109  
      80A      0.216053    81A      0.217204    82A      0.222922  
      83A      0.223935    84A      0.232055    85A      0.244753  
      86A      0.259199    87A      0.262065    88A      0.263704  
      89A      0.276827    90A      0.289701    91A      0.298067  
      92A      0.306335    93A      0.308945    94A      0.364397  
      95A      0.370189    96A      0.378288    97A      0.382248  
      98A      0.392113    99A      0.402707   100A      0.410865  
     101A      0.427455   102A      0.429454   103A      0.442421  
     104A      0.445411   105A      0.469146   106A      0.477488  
     107A      0.480949   108A      0.490185   109A      0.499024  
     110A      0.504811   111A      0.515687   112A      0.533440  
     113A      0.589286   114A      0.595222   115A      0.609453  
     116A      0.616387   117A      0.629555   118A      0.634885  
     119A      0.642651   120A      0.645256   121A      0.658537  
     122A      0.665876   123A      0.690362   124A      0.695875  
     125A      0.698984   126A      0.704812   127A      0.714281  
     128A      0.717198   129A      0.724395   130A      0.726508  
     131A      0.733654   132A      0.736159   133A      0.739607  
     134A      0.742021   135A      0.742514   136A      0.746085  
     137A      0.748712   138A      0.761234   139A      0.762468  
     140A      0.764365   141A      0.766260   142A      0.772573  
     143A      0.775097   144A      0.790387   145A      0.791807  
     146A      0.795163   147A      0.802842   148A      0.813160  
     149A      0.837547   150A      0.847082   151A      0.848950  
     152A      0.861979   153A      0.872615   154A      0.873001  
     155A      0.875272   156A      0.879164   157A      0.889572  
     158A      0.895348   159A      0.898642   160A      0.904920  
     161A      0.911486   162A      0.913827   163A      0.920538  
     164A      0.938256   165A      0.947493   166A      0.948124  
     167A      0.957465   168A      0.959747   169A      0.966582  
     170A      0.973923   171A      0.981024   172A      0.987183  
     173A      0.997493   174A      1.012654   175A      1.029589  
     176A      1.042197   177A      1.047568   178A      1.069014  
     179A      1.080500   180A      1.082501   181A      1.099532  
     182A      1.122012   183A      1.126879   184A      1.132648  
     185A      1.138121   186A      1.140486   187A      1.145874  
     188A      1.152526   189A      1.157121   190A      1.169707  
     191A      1.174087   192A      1.188760   193A      1.206167  
     194A      1.217110   195A      1.222597   196A      1.226494  
     197A      1.227139   198A      1.233377   199A      1.239934  
     200A      1.248638   201A      1.256794   202A      1.263779  
     203A      1.274125   204A      1.280822   205A      1.289255  
     206A      1.297333   207A      1.303807   208A      1.317330  
     209A      1.328420   210A      1.331219   211A      1.337372  
     212A      1.343736   213A      1.360410   214A      1.362556  
     215A      1.375335   216A      1.383872   217A      1.419311  
     218A      1.427027   219A      1.447301   220A      1.462364  
     221A      1.513768   222A      1.531799   223A      1.554057  
     224A      1.559687   225A      1.570997   226A      1.577299  
     227A      1.597713   228A      1.600559   229A      1.621084  
     230A      1.628097   231A      1.633138   232A      1.645197  
     233A      1.655122   234A      1.661274   235A      1.684277  
     236A      1.692467   237A      1.696038   238A      1.703471  
     239A      1.739950   240A      1.743476   241A      1.756419  
     242A      1.762844   243A      1.768231   244A      1.775915  
     245A      1.781837   246A      1.793163   247A      1.806255  
     248A      1.817359   249A      1.824728   250A      1.827132  
     251A      1.834009   252A      1.841939   253A      1.880344  
     254A      1.882203   255A      1.890204   256A      1.894822  
     257A      1.899885   258A      1.903633   259A      1.906821  
     260A      1.914581   261A      1.916664   262A      1.923083  
     263A      1.928996   264A      1.932823   265A      1.941478  
     266A      1.946995   267A      1.951104   268A      1.953338  
     269A      1.972795   270A      1.983742   271A      1.991746  
     272A      2.001812   273A      2.004291   274A      2.009648  
     275A      2.015889   276A      2.021030   277A      2.041991  
     278A      2.051262   279A      2.070525   280A      2.074254  
     281A      2.080973   282A      2.086574   283A      2.090308  
     284A      2.094256   285A      2.100563   286A      2.105591  
     287A      2.113288   288A      2.116219   289A      2.121805  
     290A      2.129025   291A      2.144478   292A      2.153332  
     293A      2.164559   294A      2.170143   295A      2.171371  
     296A      2.177443   297A      2.182990   298A      2.186251  
     299A      2.218724   300A      2.231571   301A      2.260256  
     302A      2.271419   303A      2.284168   304A      2.299120  
     305A      2.302125   306A      2.311640   307A      2.312413  
     308A      2.318919   309A      2.334157   310A      2.342495  
     311A      2.348619   312A      2.361771   313A      2.395872  
     314A      2.405689   315A      2.414484   316A      2.415676  
     317A      2.447205   318A      2.451186   319A      2.469800  
     320A      2.471322   321A      2.526209   322A      2.544257  
     323A      2.589992   324A      2.598310   325A      2.600189  
     326A      2.611148   327A      2.628938   328A      2.642262  
     329A      2.664950   330A      2.673525   331A      2.680215  
     332A      2.692809   333A      2.711696   334A      2.720478  
     335A      2.768009   336A      2.768671   337A      2.770762  
     338A      2.785427   339A      2.793398   340A      2.797199  
     341A      2.804193   342A      2.811138   343A      2.829555  
     344A      2.834083   345A      2.856099   346A      2.870960  
     347A      2.878516   348A      2.892113   349A      2.914113  
     350A      2.921776   351A      2.959517   352A      2.976932  
     353A      3.017090   354A      3.038460   355A      3.050819  
     356A      3.056750   357A      3.068197   358A      3.083454  
     359A      3.117500   360A      3.128604   361A      3.198249  
     362A      3.216145   363A      3.293750   364A      3.325847  
     365A      3.378710   366A      3.386244   367A      3.739835  
     368A      3.754551   369A      3.940133   370A      3.967071  

    Final Occupation by Irrep:
              A 
    DOCC [    70 ]

  @RHF Final Energy:  -801.06710153199072

   => Energetics <=

    Nuclear Repulsion Energy =           1363.6920960822815232
    One-Electron Energy =               -3793.7727068292633703
    Two-Electron Energy =                1629.0135092149907905
    Total Energy =                       -801.0671015319908292

Computation Completed


Properties will be evaluated at   0.000000,   0.000000,   0.000000 [a0]

Properties computed using the SCF density matrix

  Nuclear Dipole Moment: [e a0]
     X:     3.2843      Y:    -2.0942      Z:     1.9670

  Electronic Dipole Moment: [e a0]
     X:    -2.4338      Y:     2.0255      Z:    -2.6822

  Dipole Moment: [e a0]
     X:     0.8506      Y:    -0.0687      Z:    -0.7152     Total:     1.1134

  Dipole Moment: [D]
     X:     2.1619      Y:    -0.1746      Z:    -1.8177     Total:     2.8299


*** tstop() called on ds3 at Mon Apr 27 03:52:32 2020
Module time:
	user time   =     592.89 seconds =       9.88 minutes
	system time =     713.50 seconds =      11.89 minutes
	total time  =      24968 seconds =     416.13 minutes
Total time:
	user time   =     592.89 seconds =       9.88 minutes
	system time =     713.50 seconds =      11.89 minutes
	total time  =      24968 seconds =     416.13 minutes
                                     G D M A

                                 by Anthony Stone

                           version 2.2.06, 22 June 2011

               Distributed Multipoles from Gaussian wavefunctions


Starting at 3:52:33 on 27 Apr 2020  


Using SCF density matrix from file ./SSI/SSI-191TRP-229TRP-1-dimer.test.10751.fchk


                         Distributed Multipole Analysis

Standard DMA

Positions and radii in angstrom
Multipole moments in atomic units, ea_0^k for rank k

C          x =  3.615549  y = -4.207897  z = -0.695641 angstrom
           Maximum rank =  0   Radius =  0.650 angstrom
                   Q00  =  -0.214512

C          x =  2.265549  y = -1.145897  z =  0.946359 angstrom
           Maximum rank =  0   Radius =  0.650 angstrom
                   Q00  =   0.230105

C          x =  2.407549  y = -2.558897  z =  0.901359 angstrom
           Maximum rank =  0   Radius =  0.650 angstrom
                   Q00  =  -0.049355

C          x =  3.201549  y = -2.857897  z = -0.240641 angstrom
           Maximum rank =  0   Radius =  0.650 angstrom
                   Q00  =  -0.113380

C          x =  3.510549  y = -1.676897  z = -0.818641 angstrom
           Maximum rank =  0   Radius =  0.650 angstrom
                   Q00  =   0.059054

C          x =  1.520549  y = -0.510897  z =  1.917359 angstrom
           Maximum rank =  0   Radius =  0.650 angstrom
                   Q00  =  -0.097359

C          x =  0.919549  y = -1.295897  z =  2.873359 angstrom
           Maximum rank =  0   Radius =  0.650 angstrom
                   Q00  =  -0.001209

C          x =  1.016549  y = -2.695897  z =  2.845359 angstrom
           Maximum rank =  0   Radius =  0.650 angstrom
                   Q00  =  -0.095403

C          x =  1.762549  y = -3.338897  z =  1.865359 angstrom
           Maximum rank =  0   Radius =  0.650 angstrom
                   Q00  =  -0.102582

N          x =  2.947549  y = -0.639897  z = -0.117641 angstrom
           Maximum rank =  0   Radius =  0.650 angstrom
                   Q00  =  -0.490550

H          x =  1.439549  y =  0.563103  z =  1.941359 angstrom
           Maximum rank =  0   Radius =  0.325 angstrom
                   Q00  =   0.064424

H          x =  0.334549  y = -0.829897  z =  3.655359 angstrom
           Maximum rank =  0   Radius =  0.325 angstrom
                   Q00  =   0.063076

H          x =  3.082549  y =  0.341103  z = -0.339641 angstrom
           Maximum rank =  0   Radius =  0.325 angstrom
                   Q00  =   0.217087

H          x =  0.517549  y = -3.278897  z =  3.608359 angstrom
           Maximum rank =  0   Radius =  0.325 angstrom
                   Q00  =   0.061473

H          x =  4.126549  y = -1.565897  z = -1.706641 angstrom
           Maximum rank =  0   Radius =  0.325 angstrom
                   Q00  =   0.098095

H          x =  1.877549  y = -4.410897  z =  1.878359 angstrom
           Maximum rank =  0   Radius =  0.325 angstrom
                   Q00  =   0.070829

H          x =  3.657549  y = -4.864897  z =  0.174359 angstrom
           Maximum rank =  0   Radius =  0.325 angstrom
                   Q00  =   0.104979

H          x =  4.617549  y = -4.154897  z = -1.124641 angstrom
           Maximum rank =  0   Radius =  0.325 angstrom
                   Q00  =   0.103423

H          x =  2.915219  y = -4.627667  z = -1.432751 angstrom
           Maximum rank =  0   Radius =  0.325 angstrom
                   Q00  =   0.099310

C          x = -0.399451  y =  3.003103  z =  1.163359 angstrom
           Maximum rank =  0   Radius =  0.650 angstrom
                   Q00  =  -0.198964

C          x = -0.276451  y =  1.471103  z = -0.879641 angstrom
           Maximum rank =  0   Radius =  0.650 angstrom
                   Q00  =   0.102857

C          x = -0.948451  y =  2.327103  z = -0.052641 angstrom
           Maximum rank =  0   Radius =  0.650 angstrom
                   Q00  =  -0.138880

C          x = -2.367451  y =  1.544103  z = -1.686641 angstrom
           Maximum rank =  0   Radius =  0.650 angstrom
                   Q00  =   0.296343

C          x = -2.309451  y =  2.374103  z = -0.540641 angstrom
           Maximum rank =  0   Radius =  0.650 angstrom
                   Q00  =  -0.048156

C          x = -3.534451  y =  1.368103  z = -2.420641 angstrom
           Maximum rank =  0   Radius =  0.650 angstrom
                   Q00  =  -0.120877

C          x = -3.480451  y =  3.050103  z = -0.150641 angstrom
           Maximum rank =  0   Radius =  0.650 angstrom
                   Q00  =  -0.098381

C          x = -4.673451  y =  2.052103  z = -2.020641 angstrom
           Maximum rank =  0   Radius =  0.650 angstrom
                   Q00  =  -0.068864

C          x = -4.659451  y =  2.857103  z = -0.875641 angstrom
           Maximum rank =  0   Radius =  0.650 angstrom
                   Q00  =  -0.087108

N          x = -1.118451  y =  1.008103  z = -1.858641 angstrom
           Maximum rank =  0   Radius =  0.650 angstrom
                   Q00  =  -0.495712

H          x =  0.761549  y =  1.182103  z = -0.758641 angstrom
           Maximum rank =  0   Radius =  0.325 angstrom
                   Q00  =   0.070624

H          x = -0.857451  y =  0.299103  z = -2.541641 angstrom
           Maximum rank =  0   Radius =  0.325 angstrom
                   Q00  =   0.218729

H          x =  0.447549  y =  2.418103  z =  1.511359 angstrom
           Maximum rank =  0   Radius =  0.325 angstrom
                   Q00  =   0.088517

H          x = -1.167451  y =  2.957103  z =  1.930359 angstrom
           Maximum rank =  0   Radius =  0.325 angstrom
                   Q00  =   0.105985

H          x = -3.549451  y =  0.727103  z = -3.290641 angstrom
           Maximum rank =  0   Radius =  0.325 angstrom
                   Q00  =   0.072938

H          x = -3.475451  y =  3.687103  z =  0.718359 angstrom
           Maximum rank =  0   Radius =  0.325 angstrom
                   Q00  =   0.069840

H          x = -5.592451  y =  1.922103  z = -2.575641 angstrom
           Maximum rank =  0   Radius =  0.325 angstrom
                   Q00  =   0.065233

H          x = -5.564451  y =  3.363103  z = -0.576641 angstrom
           Maximum rank =  0   Radius =  0.325 angstrom
                   Q00  =   0.060872

H          x = -0.061931  y =  4.040333  z =  1.021089 angstrom
           Maximum rank =  0   Radius =  0.325 angstrom
                   Q00  =   0.097498

Total multipoles referred to origin at
           x =   0.000000,  y =    0.000000,  z =    0.000000 angstrom
                   Q00  =  -0.000000

Finished at 3:52:33 on 27 Apr 2020  

  DMA results are available in the Python driver through the
	  variable('DMA DISTRIBUTED MULTIPOLES')
  and
	  variable('DMA TOTAL MULTIPOLES')
  commands.


    Psi4 stopped on: Monday, 27 April 2020 03:52AM
    Psi4 wall time for execution: 6:56:09.08

*** Psi4 exiting successfully. Buy a developer a beer!
