
    -----------------------------------------------------------------------
          Psi4: An Open-Source Ab Initio Electronic Structure Package
                               Psi4 1.3.2 release

                         Git: Rev {HEAD} ecbda83 


    R. M. Parrish, L. A. Burns, D. G. A. Smith, A. C. Simmonett,
    A. E. DePrince III, E. G. Hohenstein, U. Bozkaya, A. Yu. Sokolov,
    R. Di Remigio, R. M. Richard, J. F. Gonthier, A. M. James,
    H. R. McAlexander, A. Kumar, M. Saitow, X. Wang, B. P. Pritchard,
    P. Verma, H. F. Schaefer III, K. Patkowski, R. A. King, E. F. Valeev,
    F. A. Evangelista, J. M. Turney, T. D. Crawford, and C. D. Sherrill,
    J. Chem. Theory Comput. 13(7) pp 3185--3197 (2017).
    (doi: 10.1021/acs.jctc.7b00174)


                         Additional Contributions by
    P. Kraus, H. Kruse, M. H. Lechner, M. C. Schieber, R. A. Shaw,
    A. Alenaizan, R. Galvelis, Z. L. Glick, S. Lehtola, and J. P. Misiewicz

    -----------------------------------------------------------------------


    Psi4 started on: Tuesday, 28 April 2020 03:20AM

    Process ID: 30165
    Host:       ds3
    PSIDATADIR: /theoryfs2/ds/metcalf/miniconda2/envs/tf2gpu/share/psi4
    Memory:     500.0 MiB
    Threads:    1
    
  ==> Input File <==

--------------------------------------------------------------------------
import numpy as np
set {scf_type pk
basis cc-pvdz
d_convergence 10
gdma_switch   0
gdma_limit    0
gdma_origin   [ 0.0,  0.0,  0.0 ]
}
molecule test {
    units Angstrom
    0 1
    --
    0 1
    C                1.474510276927154     1.610476503914413     3.145217465005196
    C                0.202510276927154     1.089476503914413     1.136217465005196
    N               -0.605489723072846     1.455476503914413     0.166217465005196
    N                0.564510276927154     1.964476503914413     2.057217465005195
    N                0.653510276927154    -0.145523496085587     1.225217465005196
    H               -0.950489723072846     2.403476503914413     0.118217465005196
    H               -0.885489723072846     0.780476503914413    -0.544782534994804
    H                0.205510276927154     2.915476503914413     1.995217465005196
    H                1.264510276927154    -0.408523496085587     1.985217465005196
    H                0.396510276927154    -0.832523496085587     0.518217465005196
    H                2.427510276927154     1.302476503914413     2.715217465005196
    H                1.043510276927154     0.779476503914413     3.707217465005196
    H                1.636030276927154     2.463166503914413     3.821107465005196
    C               -0.682489723072846    -2.100523496085587    -3.242782534994804
    C               -0.563489723072846    -1.445523496085587    -1.860782534994804
    O               -1.534489723072846    -0.775523496085587    -1.425782534994804
    O                0.487510276927154    -1.622523496085587    -1.200782534994804
    H               -1.459489723072846    -1.596523496085587    -3.813782534994804
    H               -0.952489723072846    -3.150523496085587    -3.119782534994804
    H                0.247650276927154    -2.019483496085587    -3.824392534994804

}
e, wfn = energy('scf', return_wfn=True)
gdma(wfn)
dmavals = variable('DMA DISTRIBUTED MULTIPOLES')
charges = np.array(dmavals)
print(charges)
np.save('SSI-176ARG-182GLU-1-dimer.npy', np.array(charges))--------------------------------------------------------------------------

*** tstart() called on ds3
*** at Tue Apr 28 03:20:49 2020

   => Loading Basis Set <=

    Name: CC-PVDZ
    Role: ORBITAL
    Keyword: BASIS
    atoms 1-2, 14-15  entry C          line   138 file /theoryfs2/ds/metcalf/miniconda2/envs/tf2gpu/share/psi4/basis/cc-pvdz.gbs 
    atoms 3-5         entry N          line   168 file /theoryfs2/ds/metcalf/miniconda2/envs/tf2gpu/share/psi4/basis/cc-pvdz.gbs 
    atoms 6-13, 18-20 entry H          line    22 file /theoryfs2/ds/metcalf/miniconda2/envs/tf2gpu/share/psi4/basis/cc-pvdz.gbs 
    atoms 16-17       entry O          line   198 file /theoryfs2/ds/metcalf/miniconda2/envs/tf2gpu/share/psi4/basis/cc-pvdz.gbs 


         ---------------------------------------------------------
                                   SCF
               by Justin Turney, Rob Parrish, Andy Simmonett
                          and Daniel G. A. Smith
                              RHF Reference
                        1 Threads,    500 MiB Core
         ---------------------------------------------------------

  ==> Geometry <==

    Molecular point group: c1
    Full point group: C1

    Geometry (in Angstrom), charge = 0, multiplicity = 1:

       Center              X                  Y                   Z               Mass       
    ------------   -----------------  -----------------  -----------------  -----------------
         C            1.474510276927     1.610476503914     3.145217465005    12.000000000000
         C            0.202510276927     1.089476503914     1.136217465005    12.000000000000
         N           -0.605489723073     1.455476503914     0.166217465005    14.003074004430
         N            0.564510276927     1.964476503914     2.057217465005    14.003074004430
         N            0.653510276927    -0.145523496086     1.225217465005    14.003074004430
         H           -0.950489723073     2.403476503914     0.118217465005     1.007825032230
         H           -0.885489723073     0.780476503914    -0.544782534995     1.007825032230
         H            0.205510276927     2.915476503914     1.995217465005     1.007825032230
         H            1.264510276927    -0.408523496086     1.985217465005     1.007825032230
         H            0.396510276927    -0.832523496086     0.518217465005     1.007825032230
         H            2.427510276927     1.302476503914     2.715217465005     1.007825032230
         H            1.043510276927     0.779476503914     3.707217465005     1.007825032230
         H            1.636030276927     2.463166503914     3.821107465005     1.007825032230
         C           -0.682489723073    -2.100523496086    -3.242782534995    12.000000000000
         C           -0.563489723073    -1.445523496086    -1.860782534995    12.000000000000
         O           -1.534489723073    -0.775523496086    -1.425782534995    15.994914619570
         O            0.487510276927    -1.622523496086    -1.200782534995    15.994914619570
         H           -1.459489723073    -1.596523496086    -3.813782534995     1.007825032230
         H           -0.952489723073    -3.150523496086    -3.119782534995     1.007825032230
         H            0.247650276927    -2.019483496086    -3.824392534995     1.007825032230

  Running in c1 symmetry.

  Rotational constants: A =      0.14983  B =      0.02021  C =      0.01839 [cm^-1]
  Rotational constants: A =   4491.89548  B =    606.02343  C =    551.43528 [MHz]
  Nuclear repulsion =  460.932254010511372

  Charge       = 0
  Multiplicity = 1
  Electrons    = 72
  Nalpha       = 36
  Nbeta        = 36

  ==> Algorithm <==

  SCF Algorithm Type is PK.
  DIIS enabled.
  MOM disabled.
  Fractional occupation disabled.
  Guess Type is SAD.
  Energy threshold   = 1.00e-06
  Density threshold  = 1.00e-10
  Integral threshold = 0.00e+00

  ==> Primary Basis <==

  Basis Set: CC-PVDZ
    Blend: CC-PVDZ
    Number of shells: 87
    Number of basis function: 181
    Number of Cartesian functions: 190
    Spherical Harmonics?: true
    Max angular momentum: 2

  ==> Pre-Iterations <==

   -------------------------------------------------------
    Irrep   Nso     Nmo     Nalpha   Nbeta   Ndocc  Nsocc
   -------------------------------------------------------
     A        181     181       0       0       0       0
   -------------------------------------------------------
    Total     181     181      36      36      36       0
   -------------------------------------------------------

  ==> Integral Setup <==

  Using integral reordering PK algorithm.
  Sizing the integral batches needed.
  Building batch lookup table.
   Calculation information:
      Number of atoms:                  20
      Number of AO shells:              87
      Number of primitives:            253
      Number of atomic orbitals:       190
      Number of basis functions:       181

      Integral cutoff                 1.00e-12
      Number of threads:                 1

	Batch   1 pq = [       0,    9405] index = [             0,44231715] size =     44231715
	Batch   2 pq = [    9405,   13301] index = [      44231715,88464951] size =     44233236
	Batch   3 pq = [   13301,   16471] index = [      88464951,135655156] size =     47190205
  Task number: 13
  Buffer size: 11059200
  Buffer per thread: 2
  We computed 5779479 shell quartets total.
  Whereas there are 7328706 unique shell quartets.

  ==> DiskJK: Disk-Based J/K Matrices <==

    J tasked:                  Yes
    K tasked:                  Yes
    wK tasked:                  No
    Memory [MiB]:              375
    Schwarz Cutoff:          1E-12

    OpenMP threads:              1

  Minimum eigenvalue in the overlap matrix is 3.6986119109E-03.
  Using Symmetric Orthogonalization.

  SCF Guess: Superposition of Atomic Densities via on-the-fly atomic UHF.

  ==> Iterations <==

                        Total Energy        Delta E     RMS |[F,P]|

   @RHF iter SAD:  -469.74168042331087   -4.69742e+02   0.00000e+00 
   @RHF iter   1:  -470.72325606638509   -9.81576e-01   4.20465e-03 DIIS
   @RHF iter   2:  -470.94442036157676   -2.21164e-01   2.18585e-03 DIIS
   @RHF iter   3:  -471.00138813569708   -5.69678e-02   3.90078e-04 DIIS
   @RHF iter   4:  -471.00458323405394   -3.19510e-03   1.30983e-04 DIIS
   @RHF iter   5:  -471.00494347801049   -3.60244e-04   2.31888e-05 DIIS
   @RHF iter   6:  -471.00496037894749   -1.69009e-05   7.12915e-06 DIIS
   @RHF iter   7:  -471.00496163607727   -1.25713e-06   1.96884e-06 DIIS
   @RHF iter   8:  -471.00496178317917   -1.47102e-07   6.42503e-07 DIIS
   @RHF iter   9:  -471.00496179473902   -1.15598e-08   2.59578e-07 DIIS
   @RHF iter  10:  -471.00496179620234   -1.46332e-09   7.38458e-08 DIIS
   @RHF iter  11:  -471.00496179639589   -1.93552e-10   2.21347e-08 DIIS
   @RHF iter  12:  -471.00496179641408   -1.81899e-11   1.04091e-08 DIIS
   @RHF iter  13:  -471.00496179641766   -3.58114e-12   3.18186e-09 DIIS
   @RHF iter  14:  -471.00496179641863   -9.66338e-13   1.17568e-09 DIIS
   @RHF iter  15:  -471.00496179641817    4.54747e-13   4.46473e-10 DIIS
   @RHF iter  16:  -471.00496179641868   -5.11591e-13   1.61677e-10 DIIS
   @RHF iter  17:  -471.00496179641937   -6.82121e-13   7.02231e-11 DIIS
  Energy and wave function converged.


  ==> Post-Iterations <==

    Orbital Energies [Eh]
    ---------------------

    Doubly Occupied:                                                      

       1A    -20.426563     2A    -20.426269     3A    -15.644036  
       4A    -15.608476     5A    -15.606961     6A    -11.423579  
       7A    -11.326431     8A    -11.274999     9A    -11.173296  
      10A     -1.387850    11A     -1.313776    12A     -1.247291  
      13A     -1.220082    14A     -1.198863    15A     -1.011187  
      16A     -0.921741    17A     -0.879014    18A     -0.818768  
      19A     -0.773838    20A     -0.695614    21A     -0.690311  
      22A     -0.685946    23A     -0.659510    24A     -0.637816  
      25A     -0.607165    26A     -0.601864    27A     -0.557086  
      28A     -0.547807    29A     -0.541631    30A     -0.480290  
      31A     -0.456891    32A     -0.444821    33A     -0.437324  
      34A     -0.343496    35A     -0.337185    36A     -0.330203  

    Virtual:                                                              

      37A      0.127077    38A      0.151487    39A      0.182978  
      40A      0.183906    41A      0.227846    42A      0.233153  
      43A      0.238698    44A      0.247166    45A      0.270463  
      46A      0.294432    47A      0.311595    48A      0.341846  
      49A      0.355156    50A      0.371621    51A      0.437907  
      52A      0.449756    53A      0.482253    54A      0.502102  
      55A      0.574656    56A      0.576418    57A      0.599654  
      58A      0.618249    59A      0.647642    60A      0.660636  
      61A      0.673664    62A      0.706748    63A      0.709774  
      64A      0.713952    65A      0.717095    66A      0.748360  
      67A      0.803714    68A      0.811587    69A      0.828617  
      70A      0.831668    71A      0.837217    72A      0.858917  
      73A      0.885576    74A      0.911792    75A      0.920044  
      76A      0.921904    77A      0.940297    78A      0.949528  
      79A      0.958872    80A      0.974416    81A      0.988774  
      82A      0.992329    83A      1.044332    84A      1.057951  
      85A      1.083660    86A      1.101044    87A      1.108027  
      88A      1.132324    89A      1.195111    90A      1.216769  
      91A      1.229103    92A      1.263080    93A      1.278313  
      94A      1.312210    95A      1.317668    96A      1.336133  
      97A      1.371235    98A      1.387186    99A      1.419648  
     100A      1.435643   101A      1.458008   102A      1.500680  
     103A      1.502366   104A      1.563617   105A      1.567617  
     106A      1.588922   107A      1.612551   108A      1.636051  
     109A      1.654234   110A      1.658866   111A      1.690357  
     112A      1.704309   113A      1.710348   114A      1.731944  
     115A      1.771161   116A      1.840553   117A      1.845740  
     118A      1.879693   119A      1.891820   120A      1.895838  
     121A      1.912290   122A      1.928671   123A      1.937532  
     124A      1.946705   125A      1.967638   126A      1.983786  
     127A      2.005566   128A      2.011910   129A      2.037205  
     130A      2.083217   131A      2.116462   132A      2.132819  
     133A      2.167786   134A      2.177474   135A      2.214326  
     136A      2.221614   137A      2.239450   138A      2.256137  
     139A      2.304978   140A      2.310274   141A      2.333935  
     142A      2.391742   143A      2.397705   144A      2.434121  
     145A      2.474900   146A      2.491077   147A      2.498707  
     148A      2.534788   149A      2.551811   150A      2.600246  
     151A      2.618884   152A      2.643250   153A      2.665236  
     154A      2.705190   155A      2.713364   156A      2.741465  
     157A      2.765342   158A      2.799955   159A      2.844405  
     160A      2.868270   161A      2.889484   162A      2.903508  
     163A      2.932830   164A      2.994868   165A      3.017638  
     166A      3.029610   167A      3.085117   168A      3.127250  
     169A      3.162030   170A      3.209634   171A      3.248571  
     172A      3.292606   173A      3.354137   174A      3.475284  
     175A      3.603474   176A      3.664398   177A      3.750355  
     178A      3.832227   179A      3.912242   180A      3.919225  
     181A      4.059823  

    Final Occupation by Irrep:
              A 
    DOCC [    36 ]

  @RHF Final Energy:  -471.00496179641937

   => Energetics <=

    Nuclear Repulsion Energy =            460.9322540105113717
    One-Electron Energy =               -1558.3984714275002261
    Two-Electron Energy =                 626.4612556205695455
    Total Energy =                       -471.0049617964193658

Computation Completed


Properties will be evaluated at   0.000000,   0.000000,   0.000000 [a0]

Properties computed using the SCF density matrix

  Nuclear Dipole Moment: [e a0]
     X:     2.7805      Y:     2.4510      Z:     3.3126

  Electronic Dipole Moment: [e a0]
     X:    -1.6139      Y:     0.7307      Z:    -0.0147

  Dipole Moment: [e a0]
     X:     1.1666      Y:     3.1818      Z:     3.2979     Total:     4.7287

  Dipole Moment: [D]
     X:     2.9652      Y:     8.0872      Z:     8.3824     Total:    12.0192


*** tstop() called on ds3 at Tue Apr 28 03:21:56 2020
Module time:
	user time   =      47.43 seconds =       0.79 minutes
	system time =      22.50 seconds =       0.38 minutes
	total time  =         67 seconds =       1.12 minutes
Total time:
	user time   =      47.43 seconds =       0.79 minutes
	system time =      22.50 seconds =       0.38 minutes
	total time  =         67 seconds =       1.12 minutes
                                     G D M A

                                 by Anthony Stone

                           version 2.2.06, 22 June 2011

               Distributed Multipoles from Gaussian wavefunctions


Starting at 3:21:56 on 28 Apr 2020  


Using SCF density matrix from file ./SSI/SSI-176ARG-182GLU-1-dimer.test.30165.fchk


                         Distributed Multipole Analysis

Standard DMA

Positions and radii in angstrom
Multipole moments in atomic units, ea_0^k for rank k

C          x =  1.474510  y =  1.610477  z =  3.145217 angstrom
           Maximum rank =  0   Radius =  0.650 angstrom
                   Q00  =  -0.106002

C          x =  0.202510  y =  1.089477  z =  1.136217 angstrom
           Maximum rank =  0   Radius =  0.650 angstrom
                   Q00  =   1.062352

N          x = -0.605490  y =  1.455477  z =  0.166217 angstrom
           Maximum rank =  0   Radius =  0.650 angstrom
                   Q00  =  -0.598139

N          x =  0.564510  y =  1.964477  z =  2.057217 angstrom
           Maximum rank =  0   Radius =  0.650 angstrom
                   Q00  =  -0.502251

N          x =  0.653510  y = -0.145523  z =  1.225217 angstrom
           Maximum rank =  0   Radius =  0.650 angstrom
                   Q00  =  -0.581117

H          x = -0.950490  y =  2.403477  z =  0.118217 angstrom
           Maximum rank =  0   Radius =  0.325 angstrom
                   Q00  =   0.221596

H          x = -0.885490  y =  0.780477  z = -0.544783 angstrom
           Maximum rank =  0   Radius =  0.325 angstrom
                   Q00  =   0.328279

H          x =  0.205510  y =  2.915477  z =  1.995217 angstrom
           Maximum rank =  0   Radius =  0.325 angstrom
                   Q00  =   0.213376

H          x =  1.264510  y = -0.408523  z =  1.985217 angstrom
           Maximum rank =  0   Radius =  0.325 angstrom
                   Q00  =   0.230851

H          x =  0.396510  y = -0.832523  z =  0.518217 angstrom
           Maximum rank =  0   Radius =  0.325 angstrom
                   Q00  =   0.306503

H          x =  2.427510  y =  1.302477  z =  2.715217 angstrom
           Maximum rank =  0   Radius =  0.325 angstrom
                   Q00  =   0.101550

H          x =  1.043510  y =  0.779477  z =  3.707217 angstrom
           Maximum rank =  0   Radius =  0.325 angstrom
                   Q00  =   0.097355

H          x =  1.636030  y =  2.463167  z =  3.821107 angstrom
           Maximum rank =  0   Radius =  0.325 angstrom
                   Q00  =   0.139274

C          x = -0.682490  y = -2.100523  z = -3.242783 angstrom
           Maximum rank =  0   Radius =  0.650 angstrom
                   Q00  =  -0.253379

C          x = -0.563490  y = -1.445523  z = -1.860783 angstrom
           Maximum rank =  0   Radius =  0.650 angstrom
                   Q00  =   0.865697

O          x = -1.534490  y = -0.775523  z = -1.425783 angstrom
           Maximum rank =  0   Radius =  0.650 angstrom
                   Q00  =  -0.914239

O          x =  0.487510  y = -1.622523  z = -1.200783 angstrom
           Maximum rank =  0   Radius =  0.650 angstrom
                   Q00  =  -0.885086

H          x = -1.459490  y = -1.596523  z = -3.813783 angstrom
           Maximum rank =  0   Radius =  0.325 angstrom
                   Q00  =   0.079077

H          x = -0.952490  y = -3.150523  z = -3.119783 angstrom
           Maximum rank =  0   Radius =  0.325 angstrom
                   Q00  =   0.109208

H          x =  0.247650  y = -2.019483  z = -3.824393 angstrom
           Maximum rank =  0   Radius =  0.325 angstrom
                   Q00  =   0.085097

Total multipoles referred to origin at
           x =   0.000000,  y =    0.000000,  z =    0.000000 angstrom
                   Q00  =  -0.000000

Finished at 3:21:57 on 28 Apr 2020  

  DMA results are available in the Python driver through the
	  variable('DMA DISTRIBUTED MULTIPOLES')
  and
	  variable('DMA TOTAL MULTIPOLES')
  commands.


    Psi4 stopped on: Tuesday, 28 April 2020 03:21AM
    Psi4 wall time for execution: 0:01:07.76

*** Psi4 exiting successfully. Buy a developer a beer!
