
    -----------------------------------------------------------------------
          Psi4: An Open-Source Ab Initio Electronic Structure Package
                               Psi4 1.3.2 release

                         Git: Rev {HEAD} ecbda83 


    R. M. Parrish, L. A. Burns, D. G. A. Smith, A. C. Simmonett,
    A. E. DePrince III, E. G. Hohenstein, U. Bozkaya, A. Yu. Sokolov,
    R. Di Remigio, R. M. Richard, J. F. Gonthier, A. M. James,
    H. R. McAlexander, A. Kumar, M. Saitow, X. Wang, B. P. Pritchard,
    P. Verma, H. F. Schaefer III, K. Patkowski, R. A. King, E. F. Valeev,
    F. A. Evangelista, J. M. Turney, T. D. Crawford, and C. D. Sherrill,
    J. Chem. Theory Comput. 13(7) pp 3185--3197 (2017).
    (doi: 10.1021/acs.jctc.7b00174)


                         Additional Contributions by
    P. Kraus, H. Kruse, M. H. Lechner, M. C. Schieber, R. A. Shaw,
    A. Alenaizan, R. Galvelis, Z. L. Glick, S. Lehtola, and J. P. Misiewicz

    -----------------------------------------------------------------------


    Psi4 started on: Monday, 27 April 2020 08:04AM

    Process ID: 560
    Host:       ds3
    PSIDATADIR: /theoryfs2/ds/metcalf/miniconda2/envs/tf2gpu/share/psi4
    Memory:     500.0 MiB
    Threads:    1
    
  ==> Input File <==

--------------------------------------------------------------------------
import numpy as np
set {scf_type pk
basis cc-pvdz
d_convergence 10
gdma_switch   0
gdma_limit    0
gdma_origin   [ 0.0,  0.0,  0.0 ]
}
molecule test {
    units Angstrom
    -1 1
    --
    -1 1
    C               -1.514469994475726    -1.146130568480196     1.443164835436292
    C               -0.866469994475726     0.172869431519804     1.733164835436292
    C                0.435530005524274     1.918869431519804     1.430164835436292
    C               -1.082469994475726     1.039869431519804     2.759164835436292
    N                0.076530005524274     0.753869431519804     0.907164835436292
    N               -0.254469994475726     2.119869431519804     2.552164835436292
    H                1.143530005524274     2.607869431519804     0.989164835436293
    H               -1.724469994475726    -1.198130568480196     0.375164835436292
    H               -2.460469994475726    -1.190130568480196     1.978164835436292
    H               -0.220469994475726     2.952869431519804     3.130164835436293
    H               -1.785469994475726     0.900869431519804     3.569164835436292
    H               -0.912681994475726    -2.016741568480196     1.742977835436292
    C                1.249530005524274    -0.037130568480196    -3.329835164563707
    C                0.717530005524274    -1.175130568480196    -2.470835164563708
    O                0.552530005524274    -0.979130568480196    -1.259835164563708
    O                0.509530005524274    -2.290130568480195    -3.012835164563707
    H                0.705530005524274     0.006869431519804    -4.275835164563707
    H                2.293530005524274    -0.258130568480196    -3.561835164563707
    H                1.208671005524274     0.944910431519804    -2.835947164563708

}
e, wfn = energy('scf', return_wfn=True)
gdma(wfn)
dmavals = variable('DMA DISTRIBUTED MULTIPOLES')
charges = np.array(dmavals)
print(charges)
np.save('SSI-091HIE-122ASP-1-dimer.npy', np.array(charges))--------------------------------------------------------------------------

*** tstart() called on ds3
*** at Mon Apr 27 08:04:01 2020

   => Loading Basis Set <=

    Name: CC-PVDZ
    Role: ORBITAL
    Keyword: BASIS
    atoms 1-4, 13-14  entry C          line   138 file /theoryfs2/ds/metcalf/miniconda2/envs/tf2gpu/share/psi4/basis/cc-pvdz.gbs 
    atoms 5-6         entry N          line   168 file /theoryfs2/ds/metcalf/miniconda2/envs/tf2gpu/share/psi4/basis/cc-pvdz.gbs 
    atoms 7-12, 17-19 entry H          line    22 file /theoryfs2/ds/metcalf/miniconda2/envs/tf2gpu/share/psi4/basis/cc-pvdz.gbs 
    atoms 15-16       entry O          line   198 file /theoryfs2/ds/metcalf/miniconda2/envs/tf2gpu/share/psi4/basis/cc-pvdz.gbs 


         ---------------------------------------------------------
                                   SCF
               by Justin Turney, Rob Parrish, Andy Simmonett
                          and Daniel G. A. Smith
                              RHF Reference
                        1 Threads,    500 MiB Core
         ---------------------------------------------------------

  ==> Geometry <==

    Molecular point group: c1
    Full point group: C1

    Geometry (in Angstrom), charge = -1, multiplicity = 1:

       Center              X                  Y                   Z               Mass       
    ------------   -----------------  -----------------  -----------------  -----------------
         C           -1.514469994476    -1.146130568480     1.443164835436    12.000000000000
         C           -0.866469994476     0.172869431520     1.733164835436    12.000000000000
         C            0.435530005524     1.918869431520     1.430164835436    12.000000000000
         C           -1.082469994476     1.039869431520     2.759164835436    12.000000000000
         N            0.076530005524     0.753869431520     0.907164835436    14.003074004430
         N           -0.254469994476     2.119869431520     2.552164835436    14.003074004430
         H            1.143530005524     2.607869431520     0.989164835436     1.007825032230
         H           -1.724469994476    -1.198130568480     0.375164835436     1.007825032230
         H           -2.460469994476    -1.190130568480     1.978164835436     1.007825032230
         H           -0.220469994476     2.952869431520     3.130164835436     1.007825032230
         H           -1.785469994476     0.900869431520     3.569164835436     1.007825032230
         H           -0.912681994476    -2.016741568480     1.742977835436     1.007825032230
         C            1.249530005524    -0.037130568480    -3.329835164564    12.000000000000
         C            0.717530005524    -1.175130568480    -2.470835164564    12.000000000000
         O            0.552530005524    -0.979130568480    -1.259835164564    15.994914619570
         O            0.509530005524    -2.290130568480    -3.012835164564    15.994914619570
         H            0.705530005524     0.006869431520    -4.275835164564     1.007825032230
         H            2.293530005524    -0.258130568480    -3.561835164564     1.007825032230
         H            1.208671005524     0.944910431520    -2.835947164564     1.007825032230

  Running in c1 symmetry.

  Rotational constants: A =      0.09113  B =      0.01785  C =      0.01516 [cm^-1]
  Rotational constants: A =   2731.97396  B =    535.22104  C =    454.40259 [MHz]
  Nuclear repulsion =  483.588910019602679

  Charge       = -1
  Multiplicity = 1
  Electrons    = 76
  Nalpha       = 38
  Nbeta        = 38

  ==> Algorithm <==

  SCF Algorithm Type is PK.
  DIIS enabled.
  MOM disabled.
  Fractional occupation disabled.
  Guess Type is SAD.
  Energy threshold   = 1.00e-06
  Density threshold  = 1.00e-10
  Integral threshold = 0.00e+00

  ==> Primary Basis <==

  Basis Set: CC-PVDZ
    Blend: CC-PVDZ
    Number of shells: 87
    Number of basis function: 185
    Number of Cartesian functions: 195
    Spherical Harmonics?: true
    Max angular momentum: 2

  ==> Pre-Iterations <==

   -------------------------------------------------------
    Irrep   Nso     Nmo     Nalpha   Nbeta   Ndocc  Nsocc
   -------------------------------------------------------
     A        185     185       0       0       0       0
   -------------------------------------------------------
    Total     185     185      38      38      38       0
   -------------------------------------------------------

  ==> Integral Setup <==

  Using integral reordering PK algorithm.
  Sizing the integral batches needed.
  Building batch lookup table.
   Calculation information:
      Number of atoms:                  19
      Number of AO shells:              87
      Number of primitives:            265
      Number of atomic orbitals:       195
      Number of basis functions:       185

      Integral cutoff                 1.00e-12
      Number of threads:                 1

	Batch   1 pq = [       0,    9405] index = [             0,44231715] size =     44231715
	Batch   2 pq = [    9405,   13301] index = [      44231715,88464951] size =     44233236
	Batch   3 pq = [   13301,   16290] index = [      88464951,132690195] size =     44225244
	Batch   4 pq = [   16290,   17205] index = [     132690195,148014615] size =     15324420
  Task number: 14
  Buffer size: 11059200
  Buffer per thread: 2
  We computed 5436394 shell quartets total.
  Whereas there are 7328706 unique shell quartets.

  ==> DiskJK: Disk-Based J/K Matrices <==

    J tasked:                  Yes
    K tasked:                  Yes
    wK tasked:                  No
    Memory [MiB]:              375
    Schwarz Cutoff:          1E-12

    OpenMP threads:              1

  Minimum eigenvalue in the overlap matrix is 1.2280124667E-03.
  Using Symmetric Orthogonalization.

  SCF Guess: Superposition of Atomic Densities via on-the-fly atomic UHF.

  ==> Iterations <==

                        Total Energy        Delta E     RMS |[F,P]|

   @RHF iter SAD:  -489.70141796775454   -4.89701e+02   0.00000e+00 
   @RHF iter   1:  -490.74137160795465   -1.03995e+00   4.41429e-03 DIIS
   @RHF iter   2:  -490.98739040149661   -2.46019e-01   2.70398e-03 DIIS
   @RHF iter   3:  -491.08452010932405   -9.71297e-02   4.60585e-04 DIIS
   @RHF iter   4:  -491.08884148311876   -4.32137e-03   1.94025e-04 DIIS
   @RHF iter   5:  -491.08963387794438   -7.92395e-04   4.35318e-05 DIIS
   @RHF iter   6:  -491.08968181168990   -4.79337e-05   1.82217e-05 DIIS
   @RHF iter   7:  -491.08969144878938   -9.63710e-06   5.40440e-06 DIIS
   @RHF iter   8:  -491.08969290983038   -1.46104e-06   2.39495e-06 DIIS
   @RHF iter   9:  -491.08969320521459   -2.95384e-07   1.08952e-06 DIIS
   @RHF iter  10:  -491.08969327326969   -6.80551e-08   3.30404e-07 DIIS
   @RHF iter  11:  -491.08969327912803   -5.85834e-09   1.43111e-07 DIIS
   @RHF iter  12:  -491.08969328009181   -9.63780e-10   5.20854e-08 DIIS
   @RHF iter  13:  -491.08969328024330   -1.51488e-10   1.63523e-08 DIIS
   @RHF iter  14:  -491.08969328025665   -1.33582e-11   4.87313e-09 DIIS
   @RHF iter  15:  -491.08969328025722   -5.68434e-13   2.06249e-09 DIIS
   @RHF iter  16:  -491.08969328025830   -1.08002e-12   7.30872e-10 DIIS
   @RHF iter  17:  -491.08969328025643    1.87583e-12   3.33803e-10 DIIS
   @RHF iter  18:  -491.08969328025933   -2.89901e-12   7.92610e-11 DIIS
  Energy and wave function converged.


  ==> Post-Iterations <==

    Orbital Energies [Eh]
    ---------------------

    Doubly Occupied:                                                      

       1A    -20.237437     2A    -20.233565     3A    -15.512936  
       4A    -15.404742     5A    -11.177049     6A    -11.141133  
       7A    -11.127509     8A    -11.098670     9A    -11.094344  
      10A    -11.036747    11A     -1.228772    12A     -1.130400  
      13A     -1.037490    14A     -1.013922    15A     -0.915833  
      16A     -0.822177    17A     -0.781268    18A     -0.706457  
      19A     -0.649699    20A     -0.628718    21A     -0.497112  
      22A     -0.490466    23A     -0.487725    24A     -0.480432  
      25A     -0.431416    26A     -0.418889    27A     -0.399402  
      28A     -0.395254    29A     -0.390021    30A     -0.384694  
      31A     -0.325852    32A     -0.285625    33A     -0.273692  
      34A     -0.258211    35A     -0.199386    36A     -0.163219  
      37A     -0.147120    38A     -0.138419  

    Virtual:                                                              

      39A      0.263500    40A      0.295652    41A      0.303740  
      42A      0.321438    43A      0.345222    44A      0.356195  
      45A      0.367033    46A      0.396759    47A      0.410165  
      48A      0.425427    49A      0.437870    50A      0.484666  
      51A      0.502809    52A      0.508443    53A      0.536989  
      54A      0.585251    55A      0.588981    56A      0.600448  
      57A      0.701563    58A      0.716158    59A      0.723321  
      60A      0.751169    61A      0.758755    62A      0.784714  
      63A      0.806651    64A      0.819642    65A      0.830645  
      66A      0.860411    67A      0.879995    68A      0.881944  
      69A      0.900438    70A      0.929968    71A      0.952252  
      72A      0.957032    73A      0.963578    74A      0.985005  
      75A      1.008463    76A      1.023005    77A      1.028125  
      78A      1.046668    79A      1.049452    80A      1.054560  
      81A      1.060954    82A      1.078701    83A      1.086772  
      84A      1.105804    85A      1.139311    86A      1.150081  
      87A      1.162752    88A      1.197925    89A      1.210626  
      90A      1.241935    91A      1.248242    92A      1.256176  
      93A      1.296716    94A      1.355872    95A      1.365795  
      96A      1.374147    97A      1.384417    98A      1.420001  
      99A      1.426682   100A      1.438432   101A      1.481216  
     102A      1.535673   103A      1.551192   104A      1.570564  
     105A      1.582124   106A      1.600442   107A      1.619924  
     108A      1.641159   109A      1.672782   110A      1.678196  
     111A      1.695935   112A      1.719222   113A      1.754348  
     114A      1.771995   115A      1.789892   116A      1.819855  
     117A      1.826387   118A      1.856729   119A      1.874238  
     120A      1.890703   121A      1.920300   122A      1.953400  
     123A      1.973313   124A      2.025192   125A      2.041456  
     126A      2.057519   127A      2.064011   128A      2.077704  
     129A      2.083449   130A      2.092602   131A      2.100701  
     132A      2.115916   133A      2.154681   134A      2.172184  
     135A      2.182400   136A      2.218610   137A      2.228267  
     138A      2.255804   139A      2.270412   140A      2.313442  
     141A      2.332295   142A      2.341069   143A      2.357185  
     144A      2.418810   145A      2.436776   146A      2.448952  
     147A      2.462472   148A      2.509134   149A      2.545193  
     150A      2.558763   151A      2.596997   152A      2.608586  
     153A      2.672854   154A      2.675666   155A      2.717320  
     156A      2.741779   157A      2.805645   158A      2.817055  
     159A      2.844876   160A      2.890070   161A      2.902040  
     162A      2.914820   163A      2.926540   164A      2.958683  
     165A      2.976439   166A      2.980835   167A      3.002042  
     168A      3.010607   169A      3.035580   170A      3.071950  
     171A      3.180241   172A      3.264214   173A      3.278339  
     174A      3.301028   175A      3.317184   176A      3.358681  
     177A      3.384842   178A      3.586613   179A      3.662981  
     180A      3.807988   181A      3.863068   182A      3.900177  
     183A      4.082187   184A      4.150208   185A      4.229050  

    Final Occupation by Irrep:
              A 
    DOCC [    38 ]

  @RHF Final Energy:  -491.08969328025933

   => Energetics <=

    Nuclear Repulsion Energy =            483.5889100196026789
    One-Electron Energy =               -1643.0656017774067550
    Two-Electron Energy =                 668.3869984775446937
    Total Energy =                       -491.0896932802593255

Computation Completed


Properties will be evaluated at   0.000000,   0.000000,   0.000000 [a0]

Properties computed using the SCF density matrix

  Nuclear Dipole Moment: [e a0]
     X:    -1.6371      Y:     2.5542      Z:     1.0111

  Electronic Dipole Moment: [e a0]
     X:     0.6893      Y:     1.2760      Z:     3.3890

  Dipole Moment: [e a0]
     X:    -0.9478      Y:     3.8302      Z:     4.4001     Total:     5.9102

  Dipole Moment: [D]
     X:    -2.4090      Y:     9.7354      Z:    11.1840     Total:    15.0221


*** tstop() called on ds3 at Mon Apr 27 08:06:25 2020
Module time:
	user time   =      47.95 seconds =       0.80 minutes
	system time =      22.74 seconds =       0.38 minutes
	total time  =        144 seconds =       2.40 minutes
Total time:
	user time   =      47.95 seconds =       0.80 minutes
	system time =      22.74 seconds =       0.38 minutes
	total time  =        144 seconds =       2.40 minutes
                                     G D M A

                                 by Anthony Stone

                           version 2.2.06, 22 June 2011

               Distributed Multipoles from Gaussian wavefunctions


Starting at 8:6:25 on 27 Apr 2020   


Using SCF density matrix from file ./SSI/SSI-091HIE-122ASP-1-dimer.test.560.fchk


                         Distributed Multipole Analysis

Standard DMA

Positions and radii in angstrom
Multipole moments in atomic units, ea_0^k for rank k

C          x = -1.514470  y = -1.146131  z =  1.443165 angstrom
           Maximum rank =  0   Radius =  0.650 angstrom
                   Q00  =  -0.191528

C          x = -0.866470  y =  0.172869  z =  1.733165 angstrom
           Maximum rank =  0   Radius =  0.650 angstrom
                   Q00  =   0.270813

C          x =  0.435530  y =  1.918869  z =  1.430165 angstrom
           Maximum rank =  0   Radius =  0.650 angstrom
                   Q00  =   0.427566

C          x = -1.082470  y =  1.039869  z =  2.759165 angstrom
           Maximum rank =  0   Radius =  0.650 angstrom
                   Q00  =  -0.049096

N          x =  0.076530  y =  0.753869  z =  0.907165 angstrom
           Maximum rank =  0   Radius =  0.650 angstrom
                   Q00  =  -0.715348

N          x = -0.254470  y =  2.119869  z =  2.552165 angstrom
           Maximum rank =  0   Radius =  0.650 angstrom
                   Q00  =  -0.445796

H          x =  1.143530  y =  2.607869  z =  0.989165 angstrom
           Maximum rank =  0   Radius =  0.325 angstrom
                   Q00  =   0.107709

H          x = -1.724470  y = -1.198131  z =  0.375165 angstrom
           Maximum rank =  0   Radius =  0.325 angstrom
                   Q00  =   0.160312

H          x = -2.460470  y = -1.190131  z =  1.978165 angstrom
           Maximum rank =  0   Radius =  0.325 angstrom
                   Q00  =   0.038017

H          x = -0.220470  y =  2.952869  z =  3.130165 angstrom
           Maximum rank =  0   Radius =  0.325 angstrom
                   Q00  =   0.188667

H          x = -1.785470  y =  0.900869  z =  3.569165 angstrom
           Maximum rank =  0   Radius =  0.325 angstrom
                   Q00  =   0.082645

H          x = -0.912682  y = -2.016742  z =  1.742978 angstrom
           Maximum rank =  0   Radius =  0.325 angstrom
                   Q00  =   0.111908

C          x =  1.249530  y = -0.037131  z = -3.329835 angstrom
           Maximum rank =  0   Radius =  0.650 angstrom
                   Q00  =  -0.281317

C          x =  0.717530  y = -1.175131  z = -2.470835 angstrom
           Maximum rank =  0   Radius =  0.650 angstrom
                   Q00  =   0.983238

O          x =  0.552530  y = -0.979131  z = -1.259835 angstrom
           Maximum rank =  0   Radius =  0.650 angstrom
                   Q00  =  -0.902792

O          x =  0.509530  y = -2.290131  z = -3.012835 angstrom
           Maximum rank =  0   Radius =  0.650 angstrom
                   Q00  =  -0.955131

H          x =  0.705530  y =  0.006869  z = -4.275835 angstrom
           Maximum rank =  0   Radius =  0.325 angstrom
                   Q00  =   0.050876

H          x =  2.293530  y = -0.258131  z = -3.561835 angstrom
           Maximum rank =  0   Radius =  0.325 angstrom
                   Q00  =   0.068970

H          x =  1.208671  y =  0.944910  z = -2.835947 angstrom
           Maximum rank =  0   Radius =  0.325 angstrom
                   Q00  =   0.050286

Total multipoles referred to origin at
           x =   0.000000,  y =    0.000000,  z =    0.000000 angstrom
                   Q00  =  -1.000000

Finished at 8:6:25 on 27 Apr 2020   

  DMA results are available in the Python driver through the
	  variable('DMA DISTRIBUTED MULTIPOLES')
  and
	  variable('DMA TOTAL MULTIPOLES')
  commands.


    Psi4 stopped on: Monday, 27 April 2020 08:06AM
    Psi4 wall time for execution: 0:02:24.40

*** Psi4 exiting successfully. Buy a developer a beer!
