
    -----------------------------------------------------------------------
          Psi4: An Open-Source Ab Initio Electronic Structure Package
                               Psi4 1.3.2 release

                         Git: Rev {HEAD} ecbda83 


    R. M. Parrish, L. A. Burns, D. G. A. Smith, A. C. Simmonett,
    A. E. DePrince III, E. G. Hohenstein, U. Bozkaya, A. Yu. Sokolov,
    R. Di Remigio, R. M. Richard, J. F. Gonthier, A. M. James,
    H. R. McAlexander, A. Kumar, M. Saitow, X. Wang, B. P. Pritchard,
    P. Verma, H. F. Schaefer III, K. Patkowski, R. A. King, E. F. Valeev,
    F. A. Evangelista, J. M. Turney, T. D. Crawford, and C. D. Sherrill,
    J. Chem. Theory Comput. 13(7) pp 3185--3197 (2017).
    (doi: 10.1021/acs.jctc.7b00174)


                         Additional Contributions by
    P. Kraus, H. Kruse, M. H. Lechner, M. C. Schieber, R. A. Shaw,
    A. Alenaizan, R. Galvelis, Z. L. Glick, S. Lehtola, and J. P. Misiewicz

    -----------------------------------------------------------------------


    Psi4 started on: Tuesday, 28 April 2020 04:08AM

    Process ID: 27282
    Host:       ds3
    PSIDATADIR: /theoryfs2/ds/metcalf/miniconda2/envs/tf2gpu/share/psi4
    Memory:     500.0 MiB
    Threads:    1
    
  ==> Input File <==

--------------------------------------------------------------------------
import numpy as np
set {scf_type pk
basis cc-pvdz
d_convergence 10
gdma_switch   0
gdma_limit    0
gdma_origin   [ 0.0,  0.0,  0.0 ]
}
molecule test {
    units Angstrom
    0 1
    --
    0 1
    C                3.076993708787773     1.156048826643162     1.530285705355359
    C                0.040993708787773    -0.196951173356837    -0.382714294644641
    C                1.126993708787773    -0.122951173356837     0.471285705355359
    C               -0.374006291212227     0.891048826643163    -1.129714294644641
    C                1.879993708787773     1.039048826643163     0.596285705355359
    C                0.375993708787773     2.059048826643163    -1.018714294644641
    C                1.476993708787772     2.141048826643162    -0.151714294644641
    H               -0.505006291212227    -1.125951173356837    -0.458714294644641
    H                1.398993708787773    -0.992951173356837     1.050285705355359
    H               -1.232006291212227     0.830048826643163    -1.786714294644641
    H                0.079993708787773     2.923048826643163    -1.592714294644641
    H                2.859993708787773     0.600048826643163     2.443285705355359
    H                3.194993708787772     2.201048826643162     1.821285705355359
    H                2.023993708787773     3.062048826643162    -0.065714294644641
    H                4.030823708787773     0.805925826643163     1.108845705355359
    C               -2.944006291212227    -2.483951173356838    -0.088714294644641
    C               -3.926006291212227    -3.641951173356837    -0.007714294644641
    H               -2.123006291212227    -2.640951173356837     0.602285705355359
    H               -2.551006291212227    -2.406951173356838    -1.103714294644641
    H               -3.421006291212227    -1.545951173356838     0.171285705355359
    H               -4.703006291212227    -3.460951173356837    -0.747714294644641
    H               -4.381626291212227    -3.678798173356837     0.992815705355359
    H               -3.411066291212227    -4.576633173356838    -0.274564294644641

}
e, wfn = energy('scf', return_wfn=True)
gdma(wfn)
dmavals = variable('DMA DISTRIBUTED MULTIPOLES')
charges = np.array(dmavals)
print(charges)
np.save('SSI-007PHE-084LEU-1-dimer.npy', np.array(charges))--------------------------------------------------------------------------

*** tstart() called on ds3
*** at Tue Apr 28 04:08:39 2020

   => Loading Basis Set <=

    Name: CC-PVDZ
    Role: ORBITAL
    Keyword: BASIS
    atoms 1-7, 16-17  entry C          line   138 file /theoryfs2/ds/metcalf/miniconda2/envs/tf2gpu/share/psi4/basis/cc-pvdz.gbs 
    atoms 8-15, 18-23 entry H          line    22 file /theoryfs2/ds/metcalf/miniconda2/envs/tf2gpu/share/psi4/basis/cc-pvdz.gbs 


         ---------------------------------------------------------
                                   SCF
               by Justin Turney, Rob Parrish, Andy Simmonett
                          and Daniel G. A. Smith
                              RHF Reference
                        1 Threads,    500 MiB Core
         ---------------------------------------------------------

  ==> Geometry <==

    Molecular point group: c1
    Full point group: C1

    Geometry (in Angstrom), charge = 0, multiplicity = 1:

       Center              X                  Y                   Z               Mass       
    ------------   -----------------  -----------------  -----------------  -----------------
         C            3.076993708788     1.156048826643     1.530285705355    12.000000000000
         C            0.040993708788    -0.196951173357    -0.382714294645    12.000000000000
         C            1.126993708788    -0.122951173357     0.471285705355    12.000000000000
         C           -0.374006291212     0.891048826643    -1.129714294645    12.000000000000
         C            1.879993708788     1.039048826643     0.596285705355    12.000000000000
         C            0.375993708788     2.059048826643    -1.018714294645    12.000000000000
         C            1.476993708788     2.141048826643    -0.151714294645    12.000000000000
         H           -0.505006291212    -1.125951173357    -0.458714294645     1.007825032230
         H            1.398993708788    -0.992951173357     1.050285705355     1.007825032230
         H           -1.232006291212     0.830048826643    -1.786714294645     1.007825032230
         H            0.079993708788     2.923048826643    -1.592714294645     1.007825032230
         H            2.859993708788     0.600048826643     2.443285705355     1.007825032230
         H            3.194993708788     2.201048826643     1.821285705355     1.007825032230
         H            2.023993708788     3.062048826643    -0.065714294645     1.007825032230
         H            4.030823708788     0.805925826643     1.108845705355     1.007825032230
         C           -2.944006291212    -2.483951173357    -0.088714294645    12.000000000000
         C           -3.926006291212    -3.641951173357    -0.007714294645    12.000000000000
         H           -2.123006291212    -2.640951173357     0.602285705355     1.007825032230
         H           -2.551006291212    -2.406951173357    -1.103714294645     1.007825032230
         H           -3.421006291212    -1.545951173357     0.171285705355     1.007825032230
         H           -4.703006291212    -3.460951173357    -0.747714294645     1.007825032230
         H           -4.381626291212    -3.678798173357     0.992815705355     1.007825032230
         H           -3.411066291212    -4.576633173357    -0.274564294645     1.007825032230

  Running in c1 symmetry.

  Rotational constants: A =      0.10291  B =      0.01671  C =      0.01464 [cm^-1]
  Rotational constants: A =   3085.06637  B =    500.89434  C =    438.95734 [MHz]
  Nuclear repulsion =  392.676529163059001

  Charge       = 0
  Multiplicity = 1
  Electrons    = 68
  Nalpha       = 34
  Nbeta        = 34

  ==> Algorithm <==

  SCF Algorithm Type is PK.
  DIIS enabled.
  MOM disabled.
  Fractional occupation disabled.
  Guess Type is SAD.
  Energy threshold   = 1.00e-06
  Density threshold  = 1.00e-10
  Integral threshold = 0.00e+00

  ==> Primary Basis <==

  Basis Set: CC-PVDZ
    Blend: CC-PVDZ
    Number of shells: 96
    Number of basis function: 196
    Number of Cartesian functions: 205
    Spherical Harmonics?: true
    Max angular momentum: 2

  ==> Pre-Iterations <==

   -------------------------------------------------------
    Irrep   Nso     Nmo     Nalpha   Nbeta   Ndocc  Nsocc
   -------------------------------------------------------
     A        196     196       0       0       0       0
   -------------------------------------------------------
    Total     196     196      34      34      34       0
   -------------------------------------------------------

  ==> Integral Setup <==

  Using integral reordering PK algorithm.
  Sizing the integral batches needed.
  Building batch lookup table.
   Calculation information:
      Number of atoms:                  23
      Number of AO shells:              96
      Number of primitives:            268
      Number of atomic orbitals:       205
      Number of basis functions:       196

      Integral cutoff                 1.00e-12
      Number of threads:                 1

	Batch   1 pq = [       0,    9405] index = [             0,44231715] size =     44231715
	Batch   2 pq = [    9405,   13301] index = [      44231715,88464951] size =     44233236
	Batch   3 pq = [   13301,   16290] index = [      88464951,132690195] size =     44225244
	Batch   4 pq = [   16290,   18810] index = [     132690195,176917455] size =     44227260
	Batch   5 pq = [   18810,   19306] index = [     176917455,186370471] size =      9453016
  Task number: 17
  Buffer size: 11059200
  Buffer per thread: 2
  We computed 7785188 shell quartets total.
  Whereas there are 10841496 unique shell quartets.

  ==> DiskJK: Disk-Based J/K Matrices <==

    J tasked:                  Yes
    K tasked:                  Yes
    wK tasked:                  No
    Memory [MiB]:              375
    Schwarz Cutoff:          1E-12

    OpenMP threads:              1

  Minimum eigenvalue in the overlap matrix is 3.0247113441E-04.
  Using Symmetric Orthogonalization.

  SCF Guess: Superposition of Atomic Densities via on-the-fly atomic UHF.

  ==> Iterations <==

                        Total Energy        Delta E     RMS |[F,P]|

   @RHF iter SAD:  -347.88114803271480   -3.47881e+02   0.00000e+00 
   @RHF iter   1:  -348.76621170035685   -8.85064e-01   2.89753e-03 DIIS
   @RHF iter   2:  -348.95894384339118   -1.92732e-01   1.20090e-03 DIIS
   @RHF iter   3:  -348.98910004458708   -3.01562e-02   2.58229e-04 DIIS
   @RHF iter   4:  -348.99158485812507   -2.48481e-03   5.07228e-05 DIIS
   @RHF iter   5:  -348.99165413893616   -6.92808e-05   1.76582e-05 DIIS
   @RHF iter   6:  -348.99166177500422   -7.63607e-06   4.79848e-06 DIIS
   @RHF iter   7:  -348.99166242749391   -6.52490e-07   1.25088e-06 DIIS
   @RHF iter   8:  -348.99166247640579   -4.89119e-08   2.80300e-07 DIIS
   @RHF iter   9:  -348.99166248120287   -4.79707e-09   1.08460e-07 DIIS
   @RHF iter  10:  -348.99166248208161   -8.78742e-10   5.29464e-08 DIIS
   @RHF iter  11:  -348.99166248237464   -2.93028e-10   2.24883e-08 DIIS
   @RHF iter  12:  -348.99166248243245   -5.78098e-11   1.09620e-08 DIIS
   @RHF iter  13:  -348.99166248244035   -7.90124e-12   3.94784e-09 DIIS
   @RHF iter  14:  -348.99166248244154   -1.19371e-12   7.00845e-10 DIIS
   @RHF iter  15:  -348.99166248244273   -1.19371e-12   2.40320e-10 DIIS
   @RHF iter  16:  -348.99166248244404   -1.30740e-12   1.27739e-10 DIIS
   @RHF iter  17:  -348.99166248244182    2.21689e-12   5.60026e-11 DIIS
  Energy and wave function converged.


  ==> Post-Iterations <==

    Orbital Energies [Eh]
    ---------------------

    Doubly Occupied:                                                      

       1A    -11.240488     2A    -11.234428     3A    -11.231450  
       4A    -11.230649     5A    -11.229410     6A    -11.228687  
       7A    -11.226951     8A    -11.220133     9A    -11.216801  
      10A     -1.151571    11A     -1.042828    12A     -1.023255  
      13A     -1.007118    14A     -0.932501    15A     -0.838696  
      16A     -0.822573    17A     -0.794895    18A     -0.691277  
      19A     -0.629191    20A     -0.626611    21A     -0.603896  
      22A     -0.600204    23A     -0.576080    24A     -0.574922  
      25A     -0.565449    26A     -0.534660    27A     -0.503201  
      28A     -0.490910    29A     -0.487098    30A     -0.485876  
      31A     -0.482142    32A     -0.476240    33A     -0.328431  
      34A     -0.323826  

    Virtual:                                                              

      35A      0.138765    36A      0.142186    37A      0.174845  
      38A      0.190783    39A      0.203264    40A      0.216818  
      41A      0.227861    42A      0.249821    43A      0.251312  
      44A      0.257222    45A      0.268962    46A      0.278160  
      47A      0.284509    48A      0.288270    49A      0.299137  
      50A      0.326145    51A      0.365656    52A      0.374820  
      53A      0.406645    54A      0.453194    55A      0.472603  
      56A      0.480426    57A      0.498928    58A      0.558484  
      59A      0.590404    60A      0.599170    61A      0.602572  
      62A      0.635947    63A      0.638772    64A      0.670690  
      65A      0.684806    66A      0.694902    67A      0.699458  
      68A      0.712066    69A      0.728577    70A      0.740074  
      71A      0.742569    72A      0.750263    73A      0.755400  
      74A      0.759451    75A      0.781686    76A      0.783218  
      77A      0.825778    78A      0.849977    79A      0.865102  
      80A      0.875762    81A      0.882297    82A      0.890910  
      83A      0.892074    84A      0.894004    85A      0.900052  
      86A      0.908510    87A      0.910417    88A      0.914879  
      89A      0.923349    90A      0.930910    91A      0.944142  
      92A      0.952622    93A      0.968066    94A      0.994198  
      95A      1.040221    96A      1.050254    97A      1.117599  
      98A      1.119809    99A      1.142088   100A      1.148727  
     101A      1.164588   102A      1.190449   103A      1.192429  
     104A      1.224370   105A      1.243681   106A      1.255626  
     107A      1.263011   108A      1.271305   109A      1.298742  
     110A      1.305985   111A      1.327950   112A      1.337407  
     113A      1.410807   114A      1.473323   115A      1.484305  
     116A      1.518039   117A      1.524495   118A      1.545783  
     119A      1.576433   120A      1.609324   121A      1.669280  
     122A      1.673161   123A      1.694890   124A      1.698774  
     125A      1.731490   126A      1.749115   127A      1.764098  
     128A      1.793389   129A      1.808455   130A      1.851283  
     131A      1.860874   132A      1.877125   133A      1.882618  
     134A      1.897432   135A      1.905607   136A      1.908800  
     137A      1.922541   138A      1.928616   139A      1.940432  
     140A      1.942053   141A      1.954888   142A      1.959427  
     143A      1.961284   144A      1.969002   145A      1.972252  
     146A      1.988202   147A      1.989822   148A      2.031472  
     149A      2.038502   150A      2.062268   151A      2.075629  
     152A      2.092066   153A      2.104901   154A      2.121402  
     155A      2.144234   156A      2.148899   157A      2.178422  
     158A      2.181951   159A      2.191368   160A      2.258651  
     161A      2.278551   162A      2.293534   163A      2.303063  
     164A      2.307539   165A      2.314051   166A      2.321180  
     167A      2.356842   168A      2.448651   169A      2.473345  
     170A      2.478165   171A      2.481896   172A      2.501513  
     173A      2.539104   174A      2.563798   175A      2.577637  
     176A      2.620591   177A      2.740421   178A      2.756535  
     179A      2.763512   180A      2.775855   181A      2.785773  
     182A      2.794848   183A      2.839415   184A      2.844164  
     185A      2.851707   186A      2.856597   187A      2.870369  
     188A      2.940715   189A      2.968588   190A      2.993616  
     191A      3.000683   192A      3.030402   193A      3.156697  
     194A      3.199655   195A      3.315005   196A      3.958243  

    Final Occupation by Irrep:
              A 
    DOCC [    34 ]

  @RHF Final Energy:  -348.99166248244182

   => Energetics <=

    Nuclear Repulsion Energy =            392.6765291630590013
    One-Electron Energy =               -1248.0314861387998917
    Two-Electron Energy =                 506.3632944932990085
    Total Energy =                       -348.9916624824418250

Computation Completed


Properties will be evaluated at   0.000000,   0.000000,   0.000000 [a0]

Properties computed using the SCF density matrix

  Nuclear Dipole Moment: [e a0]
     X:    -8.1925      Y:    -9.3812      Z:     2.0252

  Electronic Dipole Moment: [e a0]
     X:     8.2513      Y:     9.3812      Z:    -1.9391

  Dipole Moment: [e a0]
     X:     0.0589      Y:    -0.0001      Z:     0.0860     Total:     0.1042

  Dipole Moment: [D]
     X:     0.1496      Y:    -0.0002      Z:     0.2186     Total:     0.2649


*** tstop() called on ds3 at Tue Apr 28 04:11:15 2020
Module time:
	user time   =      58.19 seconds =       0.97 minutes
	system time =      27.25 seconds =       0.45 minutes
	total time  =        156 seconds =       2.60 minutes
Total time:
	user time   =      58.19 seconds =       0.97 minutes
	system time =      27.25 seconds =       0.45 minutes
	total time  =        156 seconds =       2.60 minutes
                                     G D M A

                                 by Anthony Stone

                           version 2.2.06, 22 June 2011

               Distributed Multipoles from Gaussian wavefunctions


Starting at 4:11:15 on 28 Apr 2020  


Using SCF density matrix from file ./SSI/SSI-007PHE-084LEU-1-dimer.test.27282.fchk


                         Distributed Multipole Analysis

Standard DMA

Positions and radii in angstrom
Multipole moments in atomic units, ea_0^k for rank k

C          x =  3.076994  y =  1.156049  z =  1.530286 angstrom
           Maximum rank =  0   Radius =  0.650 angstrom
                   Q00  =  -0.212386

C          x =  0.040994  y = -0.196951  z = -0.382714 angstrom
           Maximum rank =  0   Radius =  0.650 angstrom
                   Q00  =  -0.023363

C          x =  1.126994  y = -0.122951  z =  0.471286 angstrom
           Maximum rank =  0   Radius =  0.650 angstrom
                   Q00  =  -0.007673

C          x = -0.374006  y =  0.891049  z = -1.129714 angstrom
           Maximum rank =  0   Radius =  0.650 angstrom
                   Q00  =  -0.088657

C          x =  1.879994  y =  1.039049  z =  0.596286 angstrom
           Maximum rank =  0   Radius =  0.650 angstrom
                   Q00  =  -0.102265

C          x =  0.375994  y =  2.059049  z = -1.018714 angstrom
           Maximum rank =  0   Radius =  0.650 angstrom
                   Q00  =  -0.083082

C          x =  1.476994  y =  2.141049  z = -0.151714 angstrom
           Maximum rank =  0   Radius =  0.650 angstrom
                   Q00  =  -0.088012

H          x = -0.505006  y = -1.125951  z = -0.458714 angstrom
           Maximum rank =  0   Radius =  0.325 angstrom
                   Q00  =   0.064036

H          x =  1.398994  y = -0.992951  z =  1.050286 angstrom
           Maximum rank =  0   Radius =  0.325 angstrom
                   Q00  =   0.050387

H          x = -1.232006  y =  0.830049  z = -1.786714 angstrom
           Maximum rank =  0   Radius =  0.325 angstrom
                   Q00  =   0.063582

H          x =  0.079994  y =  2.923049  z = -1.592714 angstrom
           Maximum rank =  0   Radius =  0.325 angstrom
                   Q00  =   0.062547

H          x =  2.859994  y =  0.600049  z =  2.443286 angstrom
           Maximum rank =  0   Radius =  0.325 angstrom
                   Q00  =   0.100256

H          x =  3.194994  y =  2.201049  z =  1.821286 angstrom
           Maximum rank =  0   Radius =  0.325 angstrom
                   Q00  =   0.098626

H          x =  2.023994  y =  3.062049  z = -0.065714 angstrom
           Maximum rank =  0   Radius =  0.325 angstrom
                   Q00  =   0.056326

H          x =  4.030824  y =  0.805926  z =  1.108846 angstrom
           Maximum rank =  0   Radius =  0.325 angstrom
                   Q00  =   0.108162

C          x = -2.944006  y = -2.483951  z = -0.088714 angstrom
           Maximum rank =  0   Radius =  0.650 angstrom
                   Q00  =  -0.238636

C          x = -3.926006  y = -3.641951  z = -0.007714 angstrom
           Maximum rank =  0   Radius =  0.650 angstrom
                   Q00  =  -0.230822

H          x = -2.123006  y = -2.640951  z =  0.602286 angstrom
           Maximum rank =  0   Radius =  0.325 angstrom
                   Q00  =   0.074790

H          x = -2.551006  y = -2.406951  z = -1.103714 angstrom
           Maximum rank =  0   Radius =  0.325 angstrom
                   Q00  =   0.072500

H          x = -3.421006  y = -1.545951  z =  0.171286 angstrom
           Maximum rank =  0   Radius =  0.325 angstrom
                   Q00  =   0.084211

H          x = -4.703006  y = -3.460951  z = -0.747714 angstrom
           Maximum rank =  0   Radius =  0.325 angstrom
                   Q00  =   0.078154

H          x = -4.381626  y = -3.678798  z =  0.992816 angstrom
           Maximum rank =  0   Radius =  0.325 angstrom
                   Q00  =   0.081974

H          x = -3.411066  y = -4.576633  z = -0.274564 angstrom
           Maximum rank =  0   Radius =  0.325 angstrom
                   Q00  =   0.079344

Total multipoles referred to origin at
           x =   0.000000,  y =    0.000000,  z =    0.000000 angstrom
                   Q00  =  -0.000000

Finished at 4:11:16 on 28 Apr 2020  

  DMA results are available in the Python driver through the
	  variable('DMA DISTRIBUTED MULTIPOLES')
  and
	  variable('DMA TOTAL MULTIPOLES')
  commands.


    Psi4 stopped on: Tuesday, 28 April 2020 04:11AM
    Psi4 wall time for execution: 0:02:36.95

*** Psi4 exiting successfully. Buy a developer a beer!
