
    -----------------------------------------------------------------------
          Psi4: An Open-Source Ab Initio Electronic Structure Package
                               Psi4 1.3.2 release

                         Git: Rev {HEAD} ecbda83 


    R. M. Parrish, L. A. Burns, D. G. A. Smith, A. C. Simmonett,
    A. E. DePrince III, E. G. Hohenstein, U. Bozkaya, A. Yu. Sokolov,
    R. Di Remigio, R. M. Richard, J. F. Gonthier, A. M. James,
    H. R. McAlexander, A. Kumar, M. Saitow, X. Wang, B. P. Pritchard,
    P. Verma, H. F. Schaefer III, K. Patkowski, R. A. King, E. F. Valeev,
    F. A. Evangelista, J. M. Turney, T. D. Crawford, and C. D. Sherrill,
    J. Chem. Theory Comput. 13(7) pp 3185--3197 (2017).
    (doi: 10.1021/acs.jctc.7b00174)


                         Additional Contributions by
    P. Kraus, H. Kruse, M. H. Lechner, M. C. Schieber, R. A. Shaw,
    A. Alenaizan, R. Galvelis, Z. L. Glick, S. Lehtola, and J. P. Misiewicz

    -----------------------------------------------------------------------


    Psi4 started on: Sunday, 26 April 2020 07:54PM

    Process ID: 9841
    Host:       ds3
    PSIDATADIR: /theoryfs2/ds/metcalf/miniconda2/envs/tf2gpu/share/psi4
    Memory:     500.0 MiB
    Threads:    1
    
  ==> Input File <==

--------------------------------------------------------------------------
import numpy as np
set {scf_type pk
basis cc-pvdz
d_convergence 10
gdma_switch   0
gdma_limit    0
gdma_origin   [ 0.0,  0.0,  0.0 ]
}
molecule test {
    units Angstrom
    0 1
    --
    0 1
    C               -2.070291971390670     2.620760235226746     2.347832286315944
    C               -1.057291971390670    -0.161239764773254     0.015832286315944
    C               -0.263291971390670     0.535760235226746    -0.905167713684056
    C               -1.669291971390670     0.512760235226746     1.022832286315944
    C               -1.495291971390670     1.885760235226746     1.155832286315944
    C               -0.120291971390670     1.898760235226746    -0.845167713684056
    C               -0.718291971390670     2.572760235226746     0.208832286315944
    O                0.324708028609330    -0.115239764773254    -1.903167713684056
    H               -1.218291971390670    -1.221239764773254    -0.115167713684056
    H               -2.438291971390670     0.024760235226746     1.577832286315944
    H                0.467708028609330     2.432760235226746    -1.577167713684056
    H                0.468708028609330     0.470760235226746    -2.683167713684056
    H               -2.894291971390670     2.060760235226746     2.793832286315944
    H               -2.432291971390669     3.599760235226746     2.028832286315944
    H               -0.575291971390670     3.640760235226746     0.306832286315944
    H               -1.251141971390670     2.741450235226746     3.072002286315944
    C                1.675708028609330    -2.650239764773254    -0.235167713684056
    C                3.056708028609330    -2.056239764773254    -0.517167713684056
    C                1.613708028609330    -4.153239764773254     0.005832286315944
    H                1.241708028609330    -2.144239764773254     0.627832286315944
    H                1.036708028609330    -2.435239764773253    -1.092167713684056
    H                3.713708028609330    -2.281239764773254     0.321832286315944
    H                2.050708028609330    -4.650239764773254    -0.847167713684056
    H                2.966748028609330    -0.964479764773254    -0.617037713684056
    H                3.472828028609331    -2.491209764773254    -1.437847713684056
    H                2.157618028609331    -4.483129764773253     0.903242286315944
    H                0.557208028609330    -4.444589764773254     0.100302286315944

}
e, wfn = energy('scf', return_wfn=True)
gdma(wfn)
dmavals = variable('DMA DISTRIBUTED MULTIPOLES')
charges = np.array(dmavals)
print(charges)
np.save('SSI-053TYR-059LEU-1-dimer.npy', np.array(charges))--------------------------------------------------------------------------

*** tstart() called on ds3
*** at Sun Apr 26 19:54:23 2020

   => Loading Basis Set <=

    Name: CC-PVDZ
    Role: ORBITAL
    Keyword: BASIS
    atoms 1-7, 17-19  entry C          line   138 file /theoryfs2/ds/metcalf/miniconda2/envs/tf2gpu/share/psi4/basis/cc-pvdz.gbs 
    atoms 8           entry O          line   198 file /theoryfs2/ds/metcalf/miniconda2/envs/tf2gpu/share/psi4/basis/cc-pvdz.gbs 
    atoms 9-16, 20-27 entry H          line    22 file /theoryfs2/ds/metcalf/miniconda2/envs/tf2gpu/share/psi4/basis/cc-pvdz.gbs 


         ---------------------------------------------------------
                                   SCF
               by Justin Turney, Rob Parrish, Andy Simmonett
                          and Daniel G. A. Smith
                              RHF Reference
                        1 Threads,    500 MiB Core
         ---------------------------------------------------------

  ==> Geometry <==

    Molecular point group: c1
    Full point group: C1

    Geometry (in Angstrom), charge = 0, multiplicity = 1:

       Center              X                  Y                   Z               Mass       
    ------------   -----------------  -----------------  -----------------  -----------------
         C           -2.070291971391     2.620760235227     2.347832286316    12.000000000000
         C           -1.057291971391    -0.161239764773     0.015832286316    12.000000000000
         C           -0.263291971391     0.535760235227    -0.905167713684    12.000000000000
         C           -1.669291971391     0.512760235227     1.022832286316    12.000000000000
         C           -1.495291971391     1.885760235227     1.155832286316    12.000000000000
         C           -0.120291971391     1.898760235227    -0.845167713684    12.000000000000
         C           -0.718291971391     2.572760235227     0.208832286316    12.000000000000
         O            0.324708028609    -0.115239764773    -1.903167713684    15.994914619570
         H           -1.218291971391    -1.221239764773    -0.115167713684     1.007825032230
         H           -2.438291971391     0.024760235227     1.577832286316     1.007825032230
         H            0.467708028609     2.432760235227    -1.577167713684     1.007825032230
         H            0.468708028609     0.470760235227    -2.683167713684     1.007825032230
         H           -2.894291971391     2.060760235227     2.793832286316     1.007825032230
         H           -2.432291971391     3.599760235227     2.028832286316     1.007825032230
         H           -0.575291971391     3.640760235227     0.306832286316     1.007825032230
         H           -1.251141971391     2.741450235227     3.072002286316     1.007825032230
         C            1.675708028609    -2.650239764773    -0.235167713684    12.000000000000
         C            3.056708028609    -2.056239764773    -0.517167713684    12.000000000000
         C            1.613708028609    -4.153239764773     0.005832286316    12.000000000000
         H            1.241708028609    -2.144239764773     0.627832286316     1.007825032230
         H            1.036708028609    -2.435239764773    -1.092167713684     1.007825032230
         H            3.713708028609    -2.281239764773     0.321832286316     1.007825032230
         H            2.050708028609    -4.650239764773    -0.847167713684     1.007825032230
         H            2.966748028609    -0.964479764773    -0.617037713684     1.007825032230
         H            3.472828028609    -2.491209764773    -1.437847713684     1.007825032230
         H            2.157618028609    -4.483129764773     0.903242286316     1.007825032230
         H            0.557208028609    -4.444589764773     0.100302286316     1.007825032230

  Running in c1 symmetry.

  Rotational constants: A =      0.06048  B =      0.01503  C =      0.01349 [cm^-1]
  Rotational constants: A =   1813.03945  B =    450.65473  C =    404.28543 [MHz]
  Nuclear repulsion =  581.650268848823657

  Charge       = 0
  Multiplicity = 1
  Electrons    = 84
  Nalpha       = 42
  Nbeta        = 42

  ==> Algorithm <==

  SCF Algorithm Type is PK.
  DIIS enabled.
  MOM disabled.
  Fractional occupation disabled.
  Guess Type is SAD.
  Energy threshold   = 1.00e-06
  Density threshold  = 1.00e-10
  Integral threshold = 0.00e+00

  ==> Primary Basis <==

  Basis Set: CC-PVDZ
    Blend: CC-PVDZ
    Number of shells: 114
    Number of basis function: 234
    Number of Cartesian functions: 245
    Spherical Harmonics?: true
    Max angular momentum: 2

  ==> Pre-Iterations <==

   -------------------------------------------------------
    Irrep   Nso     Nmo     Nalpha   Nbeta   Ndocc  Nsocc
   -------------------------------------------------------
     A        234     234       0       0       0       0
   -------------------------------------------------------
    Total     234     234      42      42      42       0
   -------------------------------------------------------

  ==> Integral Setup <==

  Using integral reordering PK algorithm.
  Sizing the integral batches needed.
  Building batch lookup table.
   Calculation information:
      Number of atoms:                  27
      Number of AO shells:             114
      Number of primitives:            322
      Number of atomic orbitals:       245
      Number of basis functions:       234

      Integral cutoff                 1.00e-12
      Number of threads:                 1

	Batch   1 pq = [       0,    9405] index = [             0,44231715] size =     44231715
	Batch   2 pq = [    9405,   13301] index = [      44231715,88464951] size =     44233236
	Batch   3 pq = [   13301,   16290] index = [      88464951,132690195] size =     44225244
	Batch   4 pq = [   16290,   18810] index = [     132690195,176917455] size =     44227260
	Batch   5 pq = [   18810,   21030] index = [     176917455,221140965] size =     44223510
	Batch   6 pq = [   21030,   23037] index = [     221140965,265363203] size =     44222238
	Batch   7 pq = [   23037,   24883] index = [     265363203,309594286] size =     44231083
	Batch   8 pq = [   24883,   26601] index = [     309594286,353819901] size =     44225615
	Batch   9 pq = [   26601,   27495] index = [     353819901,378001260] size =     24181359
  Task number: 35
  Buffer size: 11059200
  Buffer per thread: 2
  We computed 18253993 shell quartets total.
  Whereas there are 21487290 unique shell quartets.

  ==> DiskJK: Disk-Based J/K Matrices <==

    J tasked:                  Yes
    K tasked:                  Yes
    wK tasked:                  No
    Memory [MiB]:              375
    Schwarz Cutoff:          1E-12

    OpenMP threads:              1

  Minimum eigenvalue in the overlap matrix is 3.2823312766E-04.
  Using Symmetric Orthogonalization.

  SCF Guess: Superposition of Atomic Densities via on-the-fly atomic UHF.

  ==> Iterations <==

                        Total Energy        Delta E     RMS |[F,P]|

   @RHF iter SAD:  -461.83929114453724   -4.61839e+02   0.00000e+00 
   @RHF iter   1:  -462.59186469011343   -7.52574e-01   2.84379e-03 DIIS
   @RHF iter   2:  -462.84052338865075   -2.48659e-01   1.20097e-03 DIIS
   @RHF iter   3:  -462.88071441246279   -4.01910e-02   2.64331e-04 DIIS
   @RHF iter   4:  -462.88397166753941   -3.25726e-03   9.82404e-05 DIIS
   @RHF iter   5:  -462.88428267127881   -3.11004e-04   2.09110e-05 DIIS
   @RHF iter   6:  -462.88430277283112   -2.01016e-05   6.54606e-06 DIIS
   @RHF iter   7:  -462.88430485868219   -2.08585e-06   1.84547e-06 DIIS
   @RHF iter   8:  -462.88430510476741   -2.46085e-07   7.05490e-07 DIIS
   @RHF iter   9:  -462.88430514301109   -3.82437e-08   2.72524e-07 DIIS
   @RHF iter  10:  -462.88430514993922   -6.92813e-09   1.06533e-07 DIIS
   @RHF iter  11:  -462.88430515197490   -2.03568e-09   4.95022e-08 DIIS
   @RHF iter  12:  -462.88430515242044   -4.45539e-10   2.12928e-08 DIIS
   @RHF iter  13:  -462.88430515249263   -7.21911e-11   8.17587e-09 DIIS
   @RHF iter  14:  -462.88430515249695   -4.32010e-12   1.65875e-09 DIIS
   @RHF iter  15:  -462.88430515249615    7.95808e-13   6.40883e-10 DIIS
   @RHF iter  16:  -462.88430515250099   -4.83169e-12   1.91744e-10 DIIS
   @RHF iter  17:  -462.88430515249865    2.33058e-12   7.72131e-11 DIIS
  Energy and wave function converged.


  ==> Post-Iterations <==

    Orbital Energies [Eh]
    ---------------------

    Doubly Occupied:                                                      

       1A    -20.584722     2A    -11.293893     3A    -11.237084  
       4A    -11.231784     5A    -11.230040     6A    -11.228361  
       7A    -11.227887     8A    -11.225687     9A    -11.206823  
      10A    -11.206288    11A    -11.203420    12A     -1.411990  
      13A     -1.153300    14A     -1.040608    15A     -1.034295  
      16A     -1.024613    17A     -0.923165    18A     -0.916303  
      19A     -0.844918    20A     -0.805559    21A     -0.782223  
      22A     -0.735548    23A     -0.671466    24A     -0.642661  
      25A     -0.617842    26A     -0.612505    27A     -0.594642  
      28A     -0.588431    29A     -0.579230    30A     -0.573602  
      31A     -0.563876    32A     -0.541604    33A     -0.523728  
      34A     -0.522927    35A     -0.495679    36A     -0.482046  
      37A     -0.468938    38A     -0.462226    39A     -0.454001  
      40A     -0.450284    41A     -0.343511    42A     -0.296336  

    Virtual:                                                              

      43A      0.131953    44A      0.154236    45A      0.173780  
      46A      0.186031    47A      0.193203    48A      0.211801  
      49A      0.220325    50A      0.237169    51A      0.247543  
      52A      0.254044    53A      0.263672    54A      0.273619  
      55A      0.282910    56A      0.288695    57A      0.291124  
      58A      0.309019    59A      0.313892    60A      0.323065  
      61A      0.367613    62A      0.373823    63A      0.380741  
      64A      0.438703    65A      0.452258    66A      0.458261  
      67A      0.487713    68A      0.498908    69A      0.517936  
      70A      0.581847    71A      0.605833    72A      0.616455  
      73A      0.621310    74A      0.624953    75A      0.628180  
      76A      0.655390    77A      0.661548    78A      0.677943  
      79A      0.697847    80A      0.702285    81A      0.710744  
      82A      0.730705    83A      0.732008    84A      0.754845  
      85A      0.769130    86A      0.780086    87A      0.786536  
      88A      0.798944    89A      0.805083    90A      0.812935  
      91A      0.829681    92A      0.848368    93A      0.853215  
      94A      0.875508    95A      0.878162    96A      0.887521  
      97A      0.895575    98A      0.900406    99A      0.904648  
     100A      0.907108   101A      0.911426   102A      0.918736  
     103A      0.923015   104A      0.934614   105A      0.940221  
     106A      0.942038   107A      0.950926   108A      0.958957  
     109A      0.976992   110A      0.995044   111A      0.998292  
     112A      1.022246   113A      1.033116   114A      1.058538  
     115A      1.128552   116A      1.138853   117A      1.146871  
     118A      1.152500   119A      1.155946   120A      1.178365  
     121A      1.211932   122A      1.217496   123A      1.234015  
     124A      1.248820   125A      1.275023   126A      1.279193  
     127A      1.295087   128A      1.321537   129A      1.334822  
     130A      1.349795   131A      1.381877   132A      1.391149  
     133A      1.416750   134A      1.470928   135A      1.492737  
     136A      1.503392   137A      1.513043   138A      1.538107  
     139A      1.579758   140A      1.590977   141A      1.613313  
     142A      1.632193   143A      1.656317   144A      1.675205  
     145A      1.691035   146A      1.695694   147A      1.700452  
     148A      1.714577   149A      1.739069   150A      1.753299  
     151A      1.771408   152A      1.786769   153A      1.811840  
     154A      1.862811   155A      1.870004   156A      1.881321  
     157A      1.895231   158A      1.896021   159A      1.903304  
     160A      1.906890   161A      1.922436   162A      1.924417  
     163A      1.930997   164A      1.942099   165A      1.950706  
     166A      1.956048   167A      1.969319   168A      1.978895  
     169A      1.982204   170A      1.988513   171A      2.008714  
     172A      2.010386   173A      2.023977   174A      2.033558  
     175A      2.041422   176A      2.046649   177A      2.056792  
     178A      2.071228   179A      2.096952   180A      2.103050  
     181A      2.144799   182A      2.149978   183A      2.158409  
     184A      2.171193   185A      2.172823   186A      2.214847  
     187A      2.224821   188A      2.257727   189A      2.283297  
     190A      2.291849   191A      2.297442   192A      2.309205  
     193A      2.344551   194A      2.346858   195A      2.356190  
     196A      2.390115   197A      2.417263   198A      2.439477  
     199A      2.488913   200A      2.507762   201A      2.512345  
     202A      2.533142   203A      2.540678   204A      2.588727  
     205A      2.606728   206A      2.613226   207A      2.630307  
     208A      2.646290   209A      2.650063   210A      2.756988  
     211A      2.759809   212A      2.771088   213A      2.774828  
     214A      2.794340   215A      2.800954   216A      2.820070  
     217A      2.824802   218A      2.829376   219A      2.913301  
     220A      2.937912   221A      2.969220   222A      2.976209  
     223A      2.992372   224A      2.996207   225A      3.079235  
     226A      3.104508   227A      3.120996   228A      3.271963  
     229A      3.292055   230A      3.379960   231A      3.624910  
     232A      3.700277   233A      4.006247   234A      4.149307  

    Final Occupation by Irrep:
              A 
    DOCC [    42 ]

  @RHF Final Energy:  -462.88430515249865

   => Energetics <=

    Nuclear Repulsion Energy =            581.6502688488236572
    One-Electron Energy =               -1781.0010564141873601
    Two-Electron Energy =                 736.4664824128649343
    Total Energy =                       -462.8843051524986549

Computation Completed


Properties will be evaluated at   0.000000,   0.000000,   0.000000 [a0]

Properties computed using the SCF density matrix

  Nuclear Dipole Moment: [e a0]
     X:     6.8676      Y:    -9.5108      Z:     3.1434

  Electronic Dipole Moment: [e a0]
     X:    -7.0767      Y:    10.1617      Z:    -3.4351

  Dipole Moment: [e a0]
     X:    -0.2091      Y:     0.6509      Z:    -0.2917     Total:     0.7433

  Dipole Moment: [D]
     X:    -0.5315      Y:     1.6545      Z:    -0.7414     Total:     1.8893


*** tstop() called on ds3 at Sun Apr 26 19:57:16 2020
Module time:
	user time   =     125.34 seconds =       2.09 minutes
	system time =      54.00 seconds =       0.90 minutes
	total time  =        173 seconds =       2.88 minutes
Total time:
	user time   =     125.34 seconds =       2.09 minutes
	system time =      54.00 seconds =       0.90 minutes
	total time  =        173 seconds =       2.88 minutes
                                     G D M A

                                 by Anthony Stone

                           version 2.2.06, 22 June 2011

               Distributed Multipoles from Gaussian wavefunctions


Starting at 19:57:16 on 26 Apr 2020 


Using SCF density matrix from file ./SSI/SSI-053TYR-059LEU-1-dimer.test.9841.fchk


                         Distributed Multipole Analysis

Standard DMA

Positions and radii in angstrom
Multipole moments in atomic units, ea_0^k for rank k

C          x = -2.070292  y =  2.620760  z =  2.347832 angstrom
           Maximum rank =  0   Radius =  0.650 angstrom
                   Q00  =  -0.187929

C          x = -1.057292  y = -0.161240  z =  0.015832 angstrom
           Maximum rank =  0   Radius =  0.650 angstrom
                   Q00  =  -0.112301

C          x = -0.263292  y =  0.535760  z = -0.905168 angstrom
           Maximum rank =  0   Radius =  0.650 angstrom
                   Q00  =   0.322458

C          x = -1.669292  y =  0.512760  z =  1.022832 angstrom
           Maximum rank =  0   Radius =  0.650 angstrom
                   Q00  =  -0.061068

C          x = -1.495292  y =  1.885760  z =  1.155832 angstrom
           Maximum rank =  0   Radius =  0.650 angstrom
                   Q00  =  -0.146330

C          x = -0.120292  y =  1.898760  z = -0.845168 angstrom
           Maximum rank =  0   Radius =  0.650 angstrom
                   Q00  =  -0.169031

C          x = -0.718292  y =  2.572760  z =  0.208832 angstrom
           Maximum rank =  0   Radius =  0.650 angstrom
                   Q00  =  -0.021680

O          x =  0.324708  y = -0.115240  z = -1.903168 angstrom
           Maximum rank =  0   Radius =  0.650 angstrom
                   Q00  =  -0.606376

H          x = -1.218292  y = -1.221240  z = -0.115168 angstrom
           Maximum rank =  0   Radius =  0.325 angstrom
                   Q00  =   0.084413

H          x = -2.438292  y =  0.024760  z =  1.577832 angstrom
           Maximum rank =  0   Radius =  0.325 angstrom
                   Q00  =   0.070135

H          x =  0.467708  y =  2.432760  z = -1.577168 angstrom
           Maximum rank =  0   Radius =  0.325 angstrom
                   Q00  =   0.070062

H          x =  0.468708  y =  0.470760  z = -2.683168 angstrom
           Maximum rank =  0   Radius =  0.325 angstrom
                   Q00  =   0.413689

H          x = -2.894292  y =  2.060760  z =  2.793832 angstrom
           Maximum rank =  0   Radius =  0.325 angstrom
                   Q00  =   0.096253

H          x = -2.432292  y =  3.599760  z =  2.028832 angstrom
           Maximum rank =  0   Radius =  0.325 angstrom
                   Q00  =   0.093997

H          x = -0.575292  y =  3.640760  z =  0.306832 angstrom
           Maximum rank =  0   Radius =  0.325 angstrom
                   Q00  =   0.064961

H          x = -1.251142  y =  2.741450  z =  3.072002 angstrom
           Maximum rank =  0   Radius =  0.325 angstrom
                   Q00  =   0.098119

C          x =  1.675708  y = -2.650240  z = -0.235168 angstrom
           Maximum rank =  0   Radius =  0.650 angstrom
                   Q00  =  -0.084207

C          x =  3.056708  y = -2.056240  z = -0.517168 angstrom
           Maximum rank =  0   Radius =  0.650 angstrom
                   Q00  =  -0.242618

C          x =  1.613708  y = -4.153240  z =  0.005832 angstrom
           Maximum rank =  0   Radius =  0.650 angstrom
                   Q00  =  -0.234100

H          x =  1.241708  y = -2.144240  z =  0.627832 angstrom
           Maximum rank =  0   Radius =  0.325 angstrom
                   Q00  =   0.042764

H          x =  1.036708  y = -2.435240  z = -1.092168 angstrom
           Maximum rank =  0   Radius =  0.325 angstrom
                   Q00  =   0.053731

H          x =  3.713708  y = -2.281240  z =  0.321832 angstrom
           Maximum rank =  0   Radius =  0.325 angstrom
                   Q00  =   0.069728

H          x =  2.050708  y = -4.650240  z = -0.847168 angstrom
           Maximum rank =  0   Radius =  0.325 angstrom
                   Q00  =   0.073288

H          x =  2.966748  y = -0.964480  z = -0.617038 angstrom
           Maximum rank =  0   Radius =  0.325 angstrom
                   Q00  =   0.088454

H          x =  3.472828  y = -2.491210  z = -1.437848 angstrom
           Maximum rank =  0   Radius =  0.325 angstrom
                   Q00  =   0.071492

H          x =  2.157618  y = -4.483130  z =  0.903242 angstrom
           Maximum rank =  0   Radius =  0.325 angstrom
                   Q00  =   0.074255

H          x =  0.557208  y = -4.444590  z =  0.100302 angstrom
           Maximum rank =  0   Radius =  0.325 angstrom
                   Q00  =   0.077840

Total multipoles referred to origin at
           x =   0.000000,  y =    0.000000,  z =    0.000000 angstrom
                   Q00  =  -0.000000

Finished at 19:57:16 on 26 Apr 2020 

  DMA results are available in the Python driver through the
	  variable('DMA DISTRIBUTED MULTIPOLES')
  and
	  variable('DMA TOTAL MULTIPOLES')
  commands.


    Psi4 stopped on: Sunday, 26 April 2020 07:57PM
    Psi4 wall time for execution: 0:02:52.87

*** Psi4 exiting successfully. Buy a developer a beer!
