
    -----------------------------------------------------------------------
          Psi4: An Open-Source Ab Initio Electronic Structure Package
                               Psi4 1.3.2 release

                         Git: Rev {HEAD} ecbda83 


    R. M. Parrish, L. A. Burns, D. G. A. Smith, A. C. Simmonett,
    A. E. DePrince III, E. G. Hohenstein, U. Bozkaya, A. Yu. Sokolov,
    R. Di Remigio, R. M. Richard, J. F. Gonthier, A. M. James,
    H. R. McAlexander, A. Kumar, M. Saitow, X. Wang, B. P. Pritchard,
    P. Verma, H. F. Schaefer III, K. Patkowski, R. A. King, E. F. Valeev,
    F. A. Evangelista, J. M. Turney, T. D. Crawford, and C. D. Sherrill,
    J. Chem. Theory Comput. 13(7) pp 3185--3197 (2017).
    (doi: 10.1021/acs.jctc.7b00174)


                         Additional Contributions by
    P. Kraus, H. Kruse, M. H. Lechner, M. C. Schieber, R. A. Shaw,
    A. Alenaizan, R. Galvelis, Z. L. Glick, S. Lehtola, and J. P. Misiewicz

    -----------------------------------------------------------------------


    Psi4 started on: Tuesday, 28 April 2020 11:09AM

    Process ID: 30718
    Host:       ds3
    PSIDATADIR: /theoryfs2/ds/metcalf/miniconda2/envs/tf2gpu/share/psi4
    Memory:     500.0 MiB
    Threads:    1
    
  ==> Input File <==

--------------------------------------------------------------------------
import numpy as np
set {scf_type pk
basis cc-pvdz
d_convergence 10
gdma_switch   0
gdma_limit    0
gdma_origin   [ 0.0,  0.0,  0.0 ]
}
molecule test {
    units Angstrom
    1 1
    --
    1 1
    C                2.416627839724390     1.747476730739596     0.496748058599255
    C                0.574627839724390     2.412476730739596    -1.072251941400744
    N                1.793627839724390     1.948476730739596    -0.817251941400745
    N               -0.143372160275610     2.821476730739596    -0.051251941400745
    N                0.067627839724390     2.525476730739596    -2.290251941400745
    H                2.450627839724390     2.451476730739596    -1.396251941400744
    H                0.241627839724390     2.786476730739596     0.880748058599256
    H               -1.051372160275610     3.246476730739596    -0.186251941400745
    H                0.040627839724390     3.499476730739596    -2.607251941400744
    H               -0.901372160275610     2.214476730739596    -2.364251941400744
    H                1.757627839724390     1.152476730739596     1.134748058599255
    H                2.592627839724390     2.711476730739596     0.983748058599256
    H                3.378677839724390     1.220626730739596     0.413748058599255
    C               -2.258372160275610    -0.659523269260404     2.733748058599256
    C               -1.416372160275610    -0.424523269260404     0.392748058599255
    C               -1.433372160275610    -1.172523269260404     1.577748058599255
    C               -0.661372160275610    -0.831523269260404    -0.698251941400744
    C                0.106627839724390    -1.981523269260404    -0.559251941400745
    C               -0.654372160275610    -2.320523269260404     1.707748058599256
    C                0.127627839724390    -2.733523269260404     0.625748058599256
    O                0.901627839724390    -2.424523269260404    -1.556251941400744
    H               -2.023372160275610     0.470476730739596     0.319748058599255
    H               -0.687372160275610    -0.266523269260404    -1.612251941400744
    H               -2.594372160275610    -1.485523269260404     3.362748058599256
    H               -3.140372160275610    -0.168523269260404     2.323748058599256
    H               -0.657372160275610    -2.887523269260404     2.627748058599256
    H                1.370627839724390    -3.219523269260404    -1.285251941400744
    H                0.736627839724390    -3.623523269260404     0.714748058599256
    H               -1.609632160275610     0.020246730739596     3.305628058599256

}
e, wfn = energy('scf', return_wfn=True)
gdma(wfn)
dmavals = variable('DMA DISTRIBUTED MULTIPOLES')
charges = np.array(dmavals)
print(charges)
np.save('SSI-004ARG-095TYR-2-dimer.npy', np.array(charges))--------------------------------------------------------------------------

*** tstart() called on ds3
*** at Tue Apr 28 11:09:40 2020

   => Loading Basis Set <=

    Name: CC-PVDZ
    Role: ORBITAL
    Keyword: BASIS
    atoms 1-2, 14-20  entry C          line   138 file /theoryfs2/ds/metcalf/miniconda2/envs/tf2gpu/share/psi4/basis/cc-pvdz.gbs 
    atoms 3-5         entry N          line   168 file /theoryfs2/ds/metcalf/miniconda2/envs/tf2gpu/share/psi4/basis/cc-pvdz.gbs 
    atoms 6-13, 22-29 entry H          line    22 file /theoryfs2/ds/metcalf/miniconda2/envs/tf2gpu/share/psi4/basis/cc-pvdz.gbs 
    atoms 21          entry O          line   198 file /theoryfs2/ds/metcalf/miniconda2/envs/tf2gpu/share/psi4/basis/cc-pvdz.gbs 


         ---------------------------------------------------------
                                   SCF
               by Justin Turney, Rob Parrish, Andy Simmonett
                          and Daniel G. A. Smith
                              RHF Reference
                        1 Threads,    500 MiB Core
         ---------------------------------------------------------

  ==> Geometry <==

    Molecular point group: c1
    Full point group: C1

    Geometry (in Angstrom), charge = 1, multiplicity = 1:

       Center              X                  Y                   Z               Mass       
    ------------   -----------------  -----------------  -----------------  -----------------
         C            2.416627839724     1.747476730740     0.496748058599    12.000000000000
         C            0.574627839724     2.412476730740    -1.072251941401    12.000000000000
         N            1.793627839724     1.948476730740    -0.817251941401    14.003074004430
         N           -0.143372160276     2.821476730740    -0.051251941401    14.003074004430
         N            0.067627839724     2.525476730740    -2.290251941401    14.003074004430
         H            2.450627839724     2.451476730740    -1.396251941401     1.007825032230
         H            0.241627839724     2.786476730740     0.880748058599     1.007825032230
         H           -1.051372160276     3.246476730740    -0.186251941401     1.007825032230
         H            0.040627839724     3.499476730740    -2.607251941401     1.007825032230
         H           -0.901372160276     2.214476730740    -2.364251941401     1.007825032230
         H            1.757627839724     1.152476730740     1.134748058599     1.007825032230
         H            2.592627839724     2.711476730740     0.983748058599     1.007825032230
         H            3.378677839724     1.220626730740     0.413748058599     1.007825032230
         C           -2.258372160276    -0.659523269260     2.733748058599    12.000000000000
         C           -1.416372160276    -0.424523269260     0.392748058599    12.000000000000
         C           -1.433372160276    -1.172523269260     1.577748058599    12.000000000000
         C           -0.661372160276    -0.831523269260    -0.698251941401    12.000000000000
         C            0.106627839724    -1.981523269260    -0.559251941401    12.000000000000
         C           -0.654372160276    -2.320523269260     1.707748058599    12.000000000000
         C            0.127627839724    -2.733523269260     0.625748058599    12.000000000000
         O            0.901627839724    -2.424523269260    -1.556251941401    15.994914619570
         H           -2.023372160276     0.470476730740     0.319748058599     1.007825032230
         H           -0.687372160276    -0.266523269260    -1.612251941401     1.007825032230
         H           -2.594372160276    -1.485523269260     3.362748058599     1.007825032230
         H           -3.140372160276    -0.168523269260     2.323748058599     1.007825032230
         H           -0.657372160276    -2.887523269260     2.627748058599     1.007825032230
         H            1.370627839724    -3.219523269260    -1.285251941401     1.007825032230
         H            0.736627839724    -3.623523269260     0.714748058599     1.007825032230
         H           -1.609632160276     0.020246730740     3.305628058599     1.007825032230

  Running in c1 symmetry.

  Rotational constants: A =      0.03153  B =      0.01563  C =      0.01309 [cm^-1]
  Rotational constants: A =    945.13050  B =    468.47790  C =    392.51470 [MHz]
  Nuclear repulsion =  795.719858446688590

  Charge       = 1
  Multiplicity = 1
  Electrons    = 98
  Nalpha       = 49
  Nbeta        = 49

  ==> Algorithm <==

  SCF Algorithm Type is PK.
  DIIS enabled.
  MOM disabled.
  Fractional occupation disabled.
  Guess Type is SAD.
  Energy threshold   = 1.00e-06
  Density threshold  = 1.00e-10
  Integral threshold = 0.00e+00

  ==> Primary Basis <==

  Basis Set: CC-PVDZ
    Blend: CC-PVDZ
    Number of shells: 126
    Number of basis function: 262
    Number of Cartesian functions: 275
    Spherical Harmonics?: true
    Max angular momentum: 2

  ==> Pre-Iterations <==

   -------------------------------------------------------
    Irrep   Nso     Nmo     Nalpha   Nbeta   Ndocc  Nsocc
   -------------------------------------------------------
     A        262     262       0       0       0       0
   -------------------------------------------------------
    Total     262     262      49      49      49       0
   -------------------------------------------------------

  ==> Integral Setup <==

  Using integral reordering PK algorithm.
  Sizing the integral batches needed.
  Building batch lookup table.
   Calculation information:
      Number of atoms:                  29
      Number of AO shells:             126
      Number of primitives:            366
      Number of atomic orbitals:       275
      Number of basis functions:       262

      Integral cutoff                 1.00e-12
      Number of threads:                 1

	Batch   1 pq = [       0,    9405] index = [             0,44231715] size =     44231715
	Batch   2 pq = [    9405,   13301] index = [      44231715,88464951] size =     44233236
	Batch   3 pq = [   13301,   16290] index = [      88464951,132690195] size =     44225244
	Batch   4 pq = [   16290,   18810] index = [     132690195,176917455] size =     44227260
	Batch   5 pq = [   18810,   21030] index = [     176917455,221140965] size =     44223510
	Batch   6 pq = [   21030,   23037] index = [     221140965,265363203] size =     44222238
	Batch   7 pq = [   23037,   24883] index = [     265363203,309594286] size =     44231083
	Batch   8 pq = [   24883,   26601] index = [     309594286,353819901] size =     44225615
	Batch   9 pq = [   26601,   28214] index = [     353819901,398029005] size =     44209104
	Batch  10 pq = [   28214,   29740] index = [     398029005,442248670] size =     44219665
	Batch  11 pq = [   29740,   31191] index = [     442248670,486454836] size =     44206166
	Batch  12 pq = [   31191,   32578] index = [     486454836,530679331] size =     44224495
	Batch  13 pq = [   32578,   33908] index = [     530679331,574893186] size =     44213855
	Batch  14 pq = [   33908,   34453] index = [     574893186,593521831] size =     18628645
  Task number: 54
  Buffer size: 11059200
  Buffer per thread: 2
  We computed 33033136 shell quartets total.
  Whereas there are 32012001 unique shell quartets.
     3.19 percent of shell quartets recomputed by reordering.

  ==> DiskJK: Disk-Based J/K Matrices <==

    J tasked:                  Yes
    K tasked:                  Yes
    wK tasked:                  No
    Memory [MiB]:              375
    Schwarz Cutoff:          1E-12

    OpenMP threads:              1

  Minimum eigenvalue in the overlap matrix is 3.3298257594E-04.
  Using Symmetric Orthogonalization.

  SCF Guess: Superposition of Atomic Densities via on-the-fly atomic UHF.

  ==> Iterations <==

                        Total Energy        Delta E     RMS |[F,P]|

   @RHF iter SAD:  -587.49768247725660   -5.87498e+02   0.00000e+00 
   @RHF iter   1:  -587.84970986950430   -3.52027e-01   2.71759e-03 DIIS
   @RHF iter   2:  -588.11443628304164   -2.64726e-01   1.09667e-03 DIIS
   @RHF iter   3:  -588.15323643285421   -3.88001e-02   2.70014e-04 DIIS
   @RHF iter   4:  -588.15698223183790   -3.74580e-03   9.26177e-05 DIIS
   @RHF iter   5:  -588.15733958604267   -3.57354e-04   2.31196e-05 DIIS
   @RHF iter   6:  -588.15737205984942   -3.24738e-05   7.77345e-06 DIIS
   @RHF iter   7:  -588.15737570033423   -3.64048e-06   2.31642e-06 DIIS
   @RHF iter   8:  -588.15737618869048   -4.88356e-07   8.92365e-07 DIIS
   @RHF iter   9:  -588.15737625770885   -6.90184e-08   3.17840e-07 DIIS
   @RHF iter  10:  -588.15737626977079   -1.20619e-08   1.39522e-07 DIIS
   @RHF iter  11:  -588.15737627338581   -3.61501e-09   5.98357e-08 DIIS
   @RHF iter  12:  -588.15737627410704   -7.21229e-10   2.83721e-08 DIIS
   @RHF iter  13:  -588.15737627421584   -1.08798e-10   1.02076e-08 DIIS
   @RHF iter  14:  -588.15737627423232   -1.64846e-11   3.11044e-09 DIIS
   @RHF iter  15:  -588.15737627423698   -4.66116e-12   1.30297e-09 DIIS
   @RHF iter  16:  -588.15737627423209    4.88853e-12   4.34556e-10 DIIS
   @RHF iter  17:  -588.15737627423425   -2.16005e-12   1.85049e-10 DIIS
   @RHF iter  18:  -588.15737627423448   -2.27374e-13   7.71226e-11 DIIS
  Energy and wave function converged.


  ==> Post-Iterations <==

    Orbital Energies [Eh]
    ---------------------

    Doubly Occupied:                                                      

       1A    -20.674425     2A    -15.807273     3A    -15.780977  
       4A    -15.762234     5A    -11.596368     6A    -11.437080  
       7A    -11.400767     8A    -11.345093     9A    -11.338159  
      10A    -11.337383    11A    -11.331982    12A    -11.331472  
      13A    -11.320138    14A     -1.552067    15A     -1.499866  
      16A     -1.409269    17A     -1.390216    18A     -1.250950  
      19A     -1.141125    20A     -1.134714    21A     -1.121956  
      22A     -1.028217    23A     -1.018584    24A     -0.964127  
      25A     -0.945789    26A     -0.928267    27A     -0.904449  
      28A     -0.891239    29A     -0.853470    30A     -0.830390  
      31A     -0.804688    32A     -0.768188    33A     -0.766948  
      34A     -0.743719    35A     -0.714518    36A     -0.706957  
      37A     -0.701419    38A     -0.693502    39A     -0.685391  
      40A     -0.670542    41A     -0.660732    42A     -0.634731  
      43A     -0.620638    44A     -0.594848    45A     -0.589914  
      46A     -0.583134    47A     -0.565599    48A     -0.444352  
      49A     -0.396305  

    Virtual:                                                              

      50A     -0.052909    51A     -0.013695    52A      0.019997  
      53A      0.030710    54A      0.044321    55A      0.056991  
      56A      0.066454    57A      0.083081    58A      0.096293  
      59A      0.099736    60A      0.110326    61A      0.116670  
      62A      0.121315    63A      0.138881    64A      0.145686  
      65A      0.168449    66A      0.179654    67A      0.185954  
      68A      0.194249    69A      0.205486    70A      0.266231  
      71A      0.270219    72A      0.301946    73A      0.323954  
      74A      0.336955    75A      0.352365    76A      0.369561  
      77A      0.393888    78A      0.400507    79A      0.406156  
      80A      0.428585    81A      0.469423    82A      0.495163  
      83A      0.512082    84A      0.517047    85A      0.524193  
      86A      0.540296    87A      0.545150    88A      0.553027  
      89A      0.567120    90A      0.581827    91A      0.595002  
      92A      0.599233    93A      0.608177    94A      0.615546  
      95A      0.631581    96A      0.634263    97A      0.641373  
      98A      0.659118    99A      0.670800   100A      0.678718  
     101A      0.681128   102A      0.690344   103A      0.691157  
     104A      0.706818   105A      0.713817   106A      0.720794  
     107A      0.742376   108A      0.755632   109A      0.761638  
     110A      0.779177   111A      0.785833   112A      0.792649  
     113A      0.794459   114A      0.800677   115A      0.822668  
     116A      0.827621   117A      0.838947   118A      0.851330  
     119A      0.854655   120A      0.858606   121A      0.876558  
     122A      0.887705   123A      0.901249   124A      0.911605  
     125A      0.923060   126A      0.937160   127A      0.943644  
     128A      0.955423   129A      0.977733   130A      1.003510  
     131A      1.006038   132A      1.037616   133A      1.042857  
     134A      1.053399   135A      1.073661   136A      1.107854  
     137A      1.122562   138A      1.130229   139A      1.136754  
     140A      1.157268   141A      1.171136   142A      1.182233  
     143A      1.191275   144A      1.196997   145A      1.209200  
     146A      1.217973   147A      1.238971   148A      1.256858  
     149A      1.272492   150A      1.295948   151A      1.311048  
     152A      1.337869   153A      1.377156   154A      1.408752  
     155A      1.425860   156A      1.443967   157A      1.462420  
     158A      1.476428   159A      1.494122   160A      1.504616  
     161A      1.512695   162A      1.520306   163A      1.530089  
     164A      1.550091   165A      1.578776   166A      1.601742  
     167A      1.609644   168A      1.637587   169A      1.646825  
     170A      1.653204   171A      1.670942   172A      1.678083  
     173A      1.702038   174A      1.703415   175A      1.713629  
     176A      1.745523   177A      1.754418   178A      1.764338  
     179A      1.771498   180A      1.783730   181A      1.802555  
     182A      1.803525   183A      1.811082   184A      1.824734  
     185A      1.827706   186A      1.839795   187A      1.851471  
     188A      1.863129   189A      1.873024   190A      1.879911  
     191A      1.883759   192A      1.892224   193A      1.934153  
     194A      1.947428   195A      1.958083   196A      1.965524  
     197A      1.969672   198A      1.980135   199A      1.987220  
     200A      2.031294   201A      2.045144   202A      2.048630  
     203A      2.056247   204A      2.060338   205A      2.090891  
     206A      2.108811   207A      2.128948   208A      2.143744  
     209A      2.156438   210A      2.165721   211A      2.178784  
     212A      2.192879   213A      2.203988   214A      2.232871  
     215A      2.242761   216A      2.267900   217A      2.290554  
     218A      2.335124   219A      2.342882   220A      2.359084  
     221A      2.366764   222A      2.374530   223A      2.378621  
     224A      2.414720   225A      2.426719   226A      2.443442  
     227A      2.463528   228A      2.476658   229A      2.520956  
     230A      2.548957   231A      2.560393   232A      2.595443  
     233A      2.618640   234A      2.648228   235A      2.664156  
     236A      2.683206   237A      2.690621   238A      2.693397  
     239A      2.704089   240A      2.730184   241A      2.774257  
     242A      2.798419   243A      2.812356   244A      2.831960  
     245A      2.856291   246A      2.887085   247A      2.894880  
     248A      2.940584   249A      2.989111   250A      2.995158  
     251A      3.002631   252A      3.161210   253A      3.168619  
     254A      3.173989   255A      3.193281   256A      3.252256  
     257A      3.340344   258A      3.498141   259A      3.567969  
     260A      3.591309   261A      3.881930   262A      4.097636  

    Final Occupation by Irrep:
              A 
    DOCC [    49 ]

  @RHF Final Energy:  -588.15737627423448

   => Energetics <=

    Nuclear Repulsion Energy =            795.7198584466885904
    One-Electron Energy =               -2364.4061250665986336
    Two-Electron Energy =                 980.5288903456754497
    Total Energy =                       -588.1573762742344798

Computation Completed


Properties will be evaluated at   0.000000,   0.000000,   0.000000 [a0]

Properties computed using the SCF density matrix

  Nuclear Dipole Moment: [e a0]
     X:    -0.0908      Y:     7.5818      Z:     6.2039

  Electronic Dipole Moment: [e a0]
     X:     1.1749      Y:    -3.1782      Z:    -6.4511

  Dipole Moment: [e a0]
     X:     1.0841      Y:     4.4036      Z:    -0.2473     Total:     4.5418

  Dipole Moment: [D]
     X:     2.7556      Y:    11.1928      Z:    -0.6285     Total:    11.5441


*** tstop() called on ds3 at Tue Apr 28 11:15:10 2020
Module time:
	user time   =     250.95 seconds =       4.18 minutes
	system time =      90.24 seconds =       1.50 minutes
	total time  =        330 seconds =       5.50 minutes
Total time:
	user time   =     250.95 seconds =       4.18 minutes
	system time =      90.24 seconds =       1.50 minutes
	total time  =        330 seconds =       5.50 minutes
                                     G D M A

                                 by Anthony Stone

                           version 2.2.06, 22 June 2011

               Distributed Multipoles from Gaussian wavefunctions


Starting at 11:15:10 on 28 Apr 2020 


Using SCF density matrix from file ./SSI/SSI-004ARG-095TYR-2-dimer.test.30718.fchk


                         Distributed Multipole Analysis

Standard DMA

Positions and radii in angstrom
Multipole moments in atomic units, ea_0^k for rank k

C          x =  2.416628  y =  1.747477  z =  0.496748 angstrom
           Maximum rank =  0   Radius =  0.650 angstrom
                   Q00  =  -0.140964

C          x =  0.574628  y =  2.412477  z = -1.072252 angstrom
           Maximum rank =  0   Radius =  0.650 angstrom
                   Q00  =   1.096210

N          x =  1.793628  y =  1.948477  z = -0.817252 angstrom
           Maximum rank =  0   Radius =  0.650 angstrom
                   Q00  =  -0.432075

N          x = -0.143372  y =  2.821477  z = -0.051252 angstrom
           Maximum rank =  0   Radius =  0.650 angstrom
                   Q00  =  -0.539580

N          x =  0.067628  y =  2.525477  z = -2.290252 angstrom
           Maximum rank =  0   Radius =  0.650 angstrom
                   Q00  =  -0.610253

H          x =  2.450628  y =  2.451477  z = -1.396252 angstrom
           Maximum rank =  0   Radius =  0.325 angstrom
                   Q00  =   0.211695

H          x =  0.241628  y =  2.786477  z =  0.880748 angstrom
           Maximum rank =  0   Radius =  0.325 angstrom
                   Q00  =   0.264958

H          x = -1.051372  y =  3.246477  z = -0.186252 angstrom
           Maximum rank =  0   Radius =  0.325 angstrom
                   Q00  =   0.266579

H          x =  0.040628  y =  3.499477  z = -2.607252 angstrom
           Maximum rank =  0   Radius =  0.325 angstrom
                   Q00  =   0.235360

H          x = -0.901372  y =  2.214477  z = -2.364252 angstrom
           Maximum rank =  0   Radius =  0.325 angstrom
                   Q00  =   0.240555

H          x =  1.757628  y =  1.152477  z =  1.134748 angstrom
           Maximum rank =  0   Radius =  0.325 angstrom
                   Q00  =   0.139674

H          x =  2.592628  y =  2.711477  z =  0.983748 angstrom
           Maximum rank =  0   Radius =  0.325 angstrom
                   Q00  =   0.094609

H          x =  3.378678  y =  1.220627  z =  0.413748 angstrom
           Maximum rank =  0   Radius =  0.325 angstrom
                   Q00  =   0.172443

C          x = -2.258372  y = -0.659523  z =  2.733748 angstrom
           Maximum rank =  0   Radius =  0.650 angstrom
                   Q00  =  -0.171827

C          x = -1.416372  y = -0.424523  z =  0.392748 angstrom
           Maximum rank =  0   Radius =  0.650 angstrom
                   Q00  =  -0.091951

C          x = -1.433372  y = -1.172523  z =  1.577748 angstrom
           Maximum rank =  0   Radius =  0.650 angstrom
                   Q00  =  -0.101765

C          x = -0.661372  y = -0.831523  z = -0.698252 angstrom
           Maximum rank =  0   Radius =  0.650 angstrom
                   Q00  =  -0.153051

C          x =  0.106628  y = -1.981523  z = -0.559252 angstrom
           Maximum rank =  0   Radius =  0.650 angstrom
                   Q00  =   0.413502

C          x = -0.654372  y = -2.320523  z =  1.707748 angstrom
           Maximum rank =  0   Radius =  0.650 angstrom
                   Q00  =  -0.061098

C          x =  0.127628  y = -2.733523  z =  0.625748 angstrom
           Maximum rank =  0   Radius =  0.650 angstrom
                   Q00  =  -0.196167

O          x =  0.901628  y = -2.424523  z = -1.556252 angstrom
           Maximum rank =  0   Radius =  0.650 angstrom
                   Q00  =  -0.636838

H          x = -2.023372  y =  0.470477  z =  0.319748 angstrom
           Maximum rank =  0   Radius =  0.325 angstrom
                   Q00  =   0.040728

H          x = -0.687372  y = -0.266523  z = -1.612252 angstrom
           Maximum rank =  0   Radius =  0.325 angstrom
                   Q00  =   0.059693

H          x = -2.594372  y = -1.485523  z =  3.362748 angstrom
           Maximum rank =  0   Radius =  0.325 angstrom
                   Q00  =   0.117256

H          x = -3.140372  y = -0.168523  z =  2.323748 angstrom
           Maximum rank =  0   Radius =  0.325 angstrom
                   Q00  =   0.097024

H          x = -0.657372  y = -2.887523  z =  2.627748 angstrom
           Maximum rank =  0   Radius =  0.325 angstrom
                   Q00  =   0.091512

H          x =  1.370628  y = -3.219523  z = -1.285252 angstrom
           Maximum rank =  0   Radius =  0.325 angstrom
                   Q00  =   0.419563

H          x =  0.736628  y = -3.623523  z =  0.714748 angstrom
           Maximum rank =  0   Radius =  0.325 angstrom
                   Q00  =   0.088823

H          x = -1.609632  y =  0.020247  z =  3.305628 angstrom
           Maximum rank =  0   Radius =  0.325 angstrom
                   Q00  =   0.085383

Total multipoles referred to origin at
           x =   0.000000,  y =    0.000000,  z =    0.000000 angstrom
                   Q00  =   1.000000

Finished at 11:15:10 on 28 Apr 2020 

  DMA results are available in the Python driver through the
	  variable('DMA DISTRIBUTED MULTIPOLES')
  and
	  variable('DMA TOTAL MULTIPOLES')
  commands.


    Psi4 stopped on: Tuesday, 28 April 2020 11:15AM
    Psi4 wall time for execution: 0:05:30.32

*** Psi4 exiting successfully. Buy a developer a beer!
