
    -----------------------------------------------------------------------
          Psi4: An Open-Source Ab Initio Electronic Structure Package
                               Psi4 1.3.2 release

                         Git: Rev {HEAD} ecbda83 


    R. M. Parrish, L. A. Burns, D. G. A. Smith, A. C. Simmonett,
    A. E. DePrince III, E. G. Hohenstein, U. Bozkaya, A. Yu. Sokolov,
    R. Di Remigio, R. M. Richard, J. F. Gonthier, A. M. James,
    H. R. McAlexander, A. Kumar, M. Saitow, X. Wang, B. P. Pritchard,
    P. Verma, H. F. Schaefer III, K. Patkowski, R. A. King, E. F. Valeev,
    F. A. Evangelista, J. M. Turney, T. D. Crawford, and C. D. Sherrill,
    J. Chem. Theory Comput. 13(7) pp 3185--3197 (2017).
    (doi: 10.1021/acs.jctc.7b00174)


                         Additional Contributions by
    P. Kraus, H. Kruse, M. H. Lechner, M. C. Schieber, R. A. Shaw,
    A. Alenaizan, R. Galvelis, Z. L. Glick, S. Lehtola, and J. P. Misiewicz

    -----------------------------------------------------------------------


    Psi4 started on: Monday, 27 April 2020 01:41PM

    Process ID: 7512
    Host:       ds3
    PSIDATADIR: /theoryfs2/ds/metcalf/miniconda2/envs/tf2gpu/share/psi4
    Memory:     500.0 MiB
    Threads:    1
    
  ==> Input File <==

--------------------------------------------------------------------------
import numpy as np
set {scf_type pk
basis cc-pvdz
d_convergence 10
gdma_switch   0
gdma_limit    0
gdma_origin   [ 0.0,  0.0,  0.0 ]
}
molecule test {
    units Angstrom
    0 1
    --
    0 1
    C                0.519322336868612    -1.504801770396145     3.358771820790734
    C                0.674322336868612    -0.574801770396145     0.914771820790734
    C                1.235322336868612    -1.164801770396145     2.099771820790734
    C                1.710322336868612    -0.546801770396145    -0.061228179209266
    C                2.533322336868612    -1.442801770396145     1.826771820790734
    C               -0.788677663131388     0.439198229603855    -0.735228179209266
    C                0.275322336868612     0.448198229603855    -1.663228179209266
    C               -0.600677663131388    -0.105801770396145     0.552771820790734
    C                1.532322336868612    -0.011801770396145    -1.324228179209266
    N                2.822322336868612    -1.060801770396145     0.541771820790734
    H               -1.761677663131388     0.808198229603855    -1.025228179209266
    H                0.100322336868612     0.830198229603855    -2.659228179209266
    H               -1.417677663131388    -0.146801770396145     1.228771820790734
    H                2.345322336868612     0.000198229603855    -2.035228179209266
    H               -0.070677663131388    -0.656801770396145     3.695771820790735
    H                1.247322336868612    -1.742801770396145     4.135771820790734
    H                3.226322336868612    -1.923801770396145     2.510771820790734
    H                3.717322336868612    -1.209801770396145     0.079771820790734
    H               -0.146827663131388    -2.366501770396146     3.204771820790734
    C               -3.816677663131388     2.078198229603855    -2.251228179209265
    C               -4.967677663131387     2.903198229603855    -2.837228179209265
    H               -3.552677663131388     1.243198229603855    -2.893228179209266
    H               -2.940677663131388     2.717198229603855    -2.127228179209266
    H               -4.104677663131388     1.684198229603855    -1.276228179209266
    H               -4.591677663131388     3.448198229603855    -3.700228179209266
    H               -5.800067663131387     2.257146229603855    -3.153058179209266
    H               -5.300637663131388     3.639148229603855    -2.090558179209266

}
e, wfn = energy('scf', return_wfn=True)
gdma(wfn)
dmavals = variable('DMA DISTRIBUTED MULTIPOLES')
charges = np.array(dmavals)
print(charges)
np.save('SSI-095TRP-104VAL-1-dimer.npy', np.array(charges))--------------------------------------------------------------------------

*** tstart() called on ds3
*** at Mon Apr 27 13:41:25 2020

   => Loading Basis Set <=

    Name: CC-PVDZ
    Role: ORBITAL
    Keyword: BASIS
    atoms 1-9, 20-21   entry C          line   138 file /theoryfs2/ds/metcalf/miniconda2/envs/tf2gpu/share/psi4/basis/cc-pvdz.gbs 
    atoms 10           entry N          line   168 file /theoryfs2/ds/metcalf/miniconda2/envs/tf2gpu/share/psi4/basis/cc-pvdz.gbs 
    atoms 11-19, 22-27 entry H          line    22 file /theoryfs2/ds/metcalf/miniconda2/envs/tf2gpu/share/psi4/basis/cc-pvdz.gbs 


         ---------------------------------------------------------
                                   SCF
               by Justin Turney, Rob Parrish, Andy Simmonett
                          and Daniel G. A. Smith
                              RHF Reference
                        1 Threads,    500 MiB Core
         ---------------------------------------------------------

  ==> Geometry <==

    Molecular point group: c1
    Full point group: C1

    Geometry (in Angstrom), charge = 0, multiplicity = 1:

       Center              X                  Y                   Z               Mass       
    ------------   -----------------  -----------------  -----------------  -----------------
         C            0.519322336869    -1.504801770396     3.358771820791    12.000000000000
         C            0.674322336869    -0.574801770396     0.914771820791    12.000000000000
         C            1.235322336869    -1.164801770396     2.099771820791    12.000000000000
         C            1.710322336869    -0.546801770396    -0.061228179209    12.000000000000
         C            2.533322336869    -1.442801770396     1.826771820791    12.000000000000
         C           -0.788677663131     0.439198229604    -0.735228179209    12.000000000000
         C            0.275322336869     0.448198229604    -1.663228179209    12.000000000000
         C           -0.600677663131    -0.105801770396     0.552771820791    12.000000000000
         C            1.532322336869    -0.011801770396    -1.324228179209    12.000000000000
         N            2.822322336869    -1.060801770396     0.541771820791    14.003074004430
         H           -1.761677663131     0.808198229604    -1.025228179209     1.007825032230
         H            0.100322336869     0.830198229604    -2.659228179209     1.007825032230
         H           -1.417677663131    -0.146801770396     1.228771820791     1.007825032230
         H            2.345322336869     0.000198229604    -2.035228179209     1.007825032230
         H           -0.070677663131    -0.656801770396     3.695771820791     1.007825032230
         H            1.247322336869    -1.742801770396     4.135771820791     1.007825032230
         H            3.226322336869    -1.923801770396     2.510771820791     1.007825032230
         H            3.717322336869    -1.209801770396     0.079771820791     1.007825032230
         H           -0.146827663131    -2.366501770396     3.204771820791     1.007825032230
         C           -3.816677663131     2.078198229604    -2.251228179209    12.000000000000
         C           -4.967677663131     2.903198229604    -2.837228179209    12.000000000000
         H           -3.552677663131     1.243198229604    -2.893228179209     1.007825032230
         H           -2.940677663131     2.717198229604    -2.127228179209     1.007825032230
         H           -4.104677663131     1.684198229604    -1.276228179209     1.007825032230
         H           -4.591677663131     3.448198229604    -3.700228179209     1.007825032230
         H           -5.800067663131     2.257146229604    -3.153058179209     1.007825032230
         H           -5.300637663131     3.639148229604    -2.090558179209     1.007825032230

  Running in c1 symmetry.

  Rotational constants: A =      0.06384  B =      0.01095  C =      0.00941 [cm^-1]
  Rotational constants: A =   1913.79138  B =    328.33246  C =    282.06921 [MHz]
  Nuclear repulsion =  628.341275416238091

  Charge       = 0
  Multiplicity = 1
  Electrons    = 88
  Nalpha       = 44
  Nbeta        = 44

  ==> Algorithm <==

  SCF Algorithm Type is PK.
  DIIS enabled.
  MOM disabled.
  Fractional occupation disabled.
  Guess Type is SAD.
  Energy threshold   = 1.00e-06
  Density threshold  = 1.00e-10
  Integral threshold = 0.00e+00

  ==> Primary Basis <==

  Basis Set: CC-PVDZ
    Blend: CC-PVDZ
    Number of shells: 117
    Number of basis function: 243
    Number of Cartesian functions: 255
    Spherical Harmonics?: true
    Max angular momentum: 2

  ==> Pre-Iterations <==

   -------------------------------------------------------
    Irrep   Nso     Nmo     Nalpha   Nbeta   Ndocc  Nsocc
   -------------------------------------------------------
     A        243     243       0       0       0       0
   -------------------------------------------------------
    Total     243     243      44      44      44       0
   -------------------------------------------------------

  ==> Integral Setup <==

  Using integral reordering PK algorithm.
  Sizing the integral batches needed.
  Building batch lookup table.
   Calculation information:
      Number of atoms:                  27
      Number of AO shells:             117
      Number of primitives:            339
      Number of atomic orbitals:       255
      Number of basis functions:       243

      Integral cutoff                 1.00e-12
      Number of threads:                 1

	Batch   1 pq = [       0,    9405] index = [             0,44231715] size =     44231715
	Batch   2 pq = [    9405,   13301] index = [      44231715,88464951] size =     44233236
	Batch   3 pq = [   13301,   16290] index = [      88464951,132690195] size =     44225244
	Batch   4 pq = [   16290,   18810] index = [     132690195,176917455] size =     44227260
	Batch   5 pq = [   18810,   21030] index = [     176917455,221140965] size =     44223510
	Batch   6 pq = [   21030,   23037] index = [     221140965,265363203] size =     44222238
	Batch   7 pq = [   23037,   24883] index = [     265363203,309594286] size =     44231083
	Batch   8 pq = [   24883,   26601] index = [     309594286,353819901] size =     44225615
	Batch   9 pq = [   26601,   28214] index = [     353819901,398029005] size =     44209104
	Batch  10 pq = [   28214,   29646] index = [     398029005,439457481] size =     41428476
  Task number: 40
  Buffer size: 11059200
  Buffer per thread: 2
  We computed 16946258 shell quartets total.
  Whereas there are 23829156 unique shell quartets.

  ==> DiskJK: Disk-Based J/K Matrices <==

    J tasked:                  Yes
    K tasked:                  Yes
    wK tasked:                  No
    Memory [MiB]:              375
    Schwarz Cutoff:          1E-12

    OpenMP threads:              1

  Minimum eigenvalue in the overlap matrix is 2.4786594337E-04.
  Using Symmetric Orthogonalization.

  SCF Guess: Superposition of Atomic Densities via on-the-fly atomic UHF.

  ==> Iterations <==

                        Total Energy        Delta E     RMS |[F,P]|

   @RHF iter SAD:  -479.03368278461505   -4.79034e+02   0.00000e+00 
   @RHF iter   1:  -479.48969640543652   -4.56014e-01   2.59794e-03 DIIS
   @RHF iter   2:  -479.72209929435837   -2.32403e-01   1.14206e-03 DIIS
   @RHF iter   3:  -479.76289359849659   -4.07943e-02   2.98820e-04 DIIS
   @RHF iter   4:  -479.76663113311110   -3.73753e-03   1.37005e-04 DIIS
   @RHF iter   5:  -479.76725549128878   -6.24358e-04   1.99635e-05 DIIS
   @RHF iter   6:  -479.76728494317291   -2.94519e-05   9.07949e-06 DIIS
   @RHF iter   7:  -479.76729098037998   -6.03721e-06   3.93076e-06 DIIS
   @RHF iter   8:  -479.76729280701511   -1.82664e-06   1.59210e-06 DIIS
   @RHF iter   9:  -479.76729319888716   -3.91872e-07   6.94495e-07 DIIS
   @RHF iter  10:  -479.76729327538089   -7.64937e-08   3.20504e-07 DIIS
   @RHF iter  11:  -479.76729329315907   -1.77782e-08   1.16730e-07 DIIS
   @RHF iter  12:  -479.76729329538557   -2.22650e-09   3.63190e-08 DIIS
   @RHF iter  13:  -479.76729329553552   -1.49953e-10   1.01135e-08 DIIS
   @RHF iter  14:  -479.76729329554638   -1.08571e-11   3.96135e-09 DIIS
   @RHF iter  15:  -479.76729329554769   -1.30740e-12   2.17679e-09 DIIS
   @RHF iter  16:  -479.76729329554649    1.19371e-12   1.07803e-09 DIIS
   @RHF iter  17:  -479.76729329555070   -4.20641e-12   3.44925e-10 DIIS
   @RHF iter  18:  -479.76729329554865    2.04636e-12   1.43967e-10 DIIS
   @RHF iter  19:  -479.76729329554712    1.53477e-12   5.35269e-11 DIIS
  Energy and wave function converged.


  ==> Post-Iterations <==

    Orbital Energies [Eh]
    ---------------------

    Doubly Occupied:                                                      

       1A    -15.599306     2A    -11.261835     3A    -11.261648  
       4A    -11.230384     5A    -11.228882     6A    -11.227092  
       7A    -11.224149     8A    -11.221219     9A    -11.220001  
      10A    -11.218900    11A    -11.216430    12A    -11.214723  
      13A     -1.295924    14A     -1.123653    15A     -1.073941  
      16A     -1.017264    17A     -0.994998    18A     -0.985912  
      19A     -0.930250    20A     -0.840164    21A     -0.836139  
      22A     -0.801474    23A     -0.751075    24A     -0.718589  
      25A     -0.663890    26A     -0.640045    27A     -0.600899  
      28A     -0.598203    29A     -0.596383    30A     -0.592363  
      31A     -0.588442    32A     -0.567332    33A     -0.551334  
      34A     -0.536681    35A     -0.526959    36A     -0.504291  
      37A     -0.490654    38A     -0.487382    39A     -0.483749  
      40A     -0.468718    41A     -0.457821    42A     -0.371047  
      43A     -0.291938    44A     -0.274192  

    Virtual:                                                              

      45A      0.126674    46A      0.168521    47A      0.179615  
      48A      0.182166    49A      0.191768    50A      0.204656  
      51A      0.222303    52A      0.227001    53A      0.231513  
      54A      0.246715    55A      0.253321    56A      0.267753  
      57A      0.273205    58A      0.286070    59A      0.288845  
      60A      0.291373    61A      0.299978    62A      0.326660  
      63A      0.375271    64A      0.382348    65A      0.406350  
      66A      0.411353    67A      0.439492    68A      0.446848  
      69A      0.473875    70A      0.483982    71A      0.500511  
      72A      0.510321    73A      0.597004    74A      0.597615  
      75A      0.599089    76A      0.611334    77A      0.632031  
      78A      0.639608    79A      0.662498    80A      0.681374  
      81A      0.687144    82A      0.696087    83A      0.706547  
      84A      0.707089    85A      0.724203    86A      0.735800  
      87A      0.741520    88A      0.742825    89A      0.746012  
      90A      0.750317    91A      0.761525    92A      0.770945  
      93A      0.784882    94A      0.791336    95A      0.803631  
      96A      0.839098    97A      0.850049    98A      0.868392  
      99A      0.880903   100A      0.886746   101A      0.890884  
     102A      0.892014   103A      0.897131   104A      0.905849  
     105A      0.909693   106A      0.910920   107A      0.920643  
     108A      0.927779   109A      0.933723   110A      0.949363  
     111A      0.953610   112A      0.962925   113A      0.973263  
     114A      0.988030   115A      1.013152   116A      1.048778  
     117A      1.066558   118A      1.068721   119A      1.100252  
     120A      1.115909   121A      1.124365   122A      1.135948  
     123A      1.142586   124A      1.151339   125A      1.175103  
     126A      1.204991   127A      1.207329   128A      1.225022  
     129A      1.233465   130A      1.237403   131A      1.245206  
     132A      1.271593   133A      1.288029   134A      1.296550  
     135A      1.302590   136A      1.328980   137A      1.348217  
     138A      1.362709   139A      1.392784   140A      1.441100  
     141A      1.449505   142A      1.467878   143A      1.485561  
     144A      1.525855   145A      1.570684   146A      1.579148  
     147A      1.595283   148A      1.601539   149A      1.633445  
     150A      1.639798   151A      1.652257   152A      1.680840  
     153A      1.686056   154A      1.695045   155A      1.695634  
     156A      1.743125   157A      1.760299   158A      1.778244  
     159A      1.787296   160A      1.805995   161A      1.824372  
     162A      1.834584   163A      1.857287   164A      1.871732  
     165A      1.876126   166A      1.888254   167A      1.909281  
     168A      1.912607   169A      1.918420   170A      1.920217  
     171A      1.928283   172A      1.935867   173A      1.946953  
     174A      1.948483   175A      1.951773   176A      1.960366  
     177A      1.961323   178A      1.978020   179A      1.986752  
     180A      2.008121   181A      2.024346   182A      2.032052  
     183A      2.050890   184A      2.075463   185A      2.091536  
     186A      2.094388   187A      2.096282   188A      2.102991  
     189A      2.116449   190A      2.121911   191A      2.132675  
     192A      2.150288   193A      2.160266   194A      2.175839  
     195A      2.194486   196A      2.221574   197A      2.244801  
     198A      2.292137   199A      2.294367   200A      2.304143  
     201A      2.312160   202A      2.333317   203A      2.344078  
     204A      2.377410   205A      2.418191   206A      2.439149  
     207A      2.448116   208A      2.452194   209A      2.457549  
     210A      2.463822   211A      2.531253   212A      2.566193  
     213A      2.579399   214A      2.583541   215A      2.606234  
     216A      2.643977   217A      2.664318   218A      2.681721  
     219A      2.709140   220A      2.754509   221A      2.776579  
     222A      2.778935   223A      2.785370   224A      2.797765  
     225A      2.825016   226A      2.831764   227A      2.844135  
     228A      2.852989   229A      2.877697   230A      2.884152  
     231A      2.914179   232A      2.937161   233A      2.958035  
     234A      2.963944   235A      3.039496   236A      3.051277  
     237A      3.082628   238A      3.116922   239A      3.202312  
     240A      3.316665   241A      3.391736   242A      3.740645  
     243A      3.939242  

    Final Occupation by Irrep:
              A 
    DOCC [    44 ]

  @RHF Final Energy:  -479.76729329554712

   => Energetics <=

    Nuclear Repulsion Energy =            628.3412754162380907
    One-Electron Energy =               -1894.6445949370265680
    Two-Electron Energy =                 786.5360262252414714
    Total Energy =                       -479.7672932955471197

Computation Completed


Properties will be evaluated at   0.000000,   0.000000,   0.000000 [a0]

Properties computed using the SCF density matrix

  Nuclear Dipole Moment: [e a0]
     X:   -17.8676      Y:     8.0477      Z:    -5.7244

  Electronic Dipole Moment: [e a0]
     X:    18.5878      Y:    -8.3528      Z:     5.7549

  Dipole Moment: [e a0]
     X:     0.7202      Y:    -0.3052      Z:     0.0305     Total:     0.7828

  Dipole Moment: [D]
     X:     1.8306      Y:    -0.7757      Z:     0.0775     Total:     1.9897


*** tstop() called on ds3 at Mon Apr 27 13:45:17 2020
Module time:
	user time   =     163.91 seconds =       2.73 minutes
	system time =      81.12 seconds =       1.35 minutes
	total time  =        232 seconds =       3.87 minutes
Total time:
	user time   =     163.91 seconds =       2.73 minutes
	system time =      81.12 seconds =       1.35 minutes
	total time  =        232 seconds =       3.87 minutes
                                     G D M A

                                 by Anthony Stone

                           version 2.2.06, 22 June 2011

               Distributed Multipoles from Gaussian wavefunctions


Starting at 13:45:17 on 27 Apr 2020 


Using SCF density matrix from file ./SSI/SSI-095TRP-104VAL-1-dimer.test.7512.fchk


                         Distributed Multipole Analysis

Standard DMA

Positions and radii in angstrom
Multipole moments in atomic units, ea_0^k for rank k

C          x =  0.519322  y = -1.504802  z =  3.358772 angstrom
           Maximum rank =  0   Radius =  0.650 angstrom
                   Q00  =  -0.203388

C          x =  0.674322  y = -0.574802  z =  0.914772 angstrom
           Maximum rank =  0   Radius =  0.650 angstrom
                   Q00  =  -0.060596

C          x =  1.235322  y = -1.164802  z =  2.099772 angstrom
           Maximum rank =  0   Radius =  0.650 angstrom
                   Q00  =  -0.117377

C          x =  1.710322  y = -0.546802  z = -0.061228 angstrom
           Maximum rank =  0   Radius =  0.650 angstrom
                   Q00  =   0.283075

C          x =  2.533322  y = -1.442802  z =  1.826772 angstrom
           Maximum rank =  0   Radius =  0.650 angstrom
                   Q00  =   0.071473

C          x = -0.788678  y =  0.439198  z = -0.735228 angstrom
           Maximum rank =  0   Radius =  0.650 angstrom
                   Q00  =  -0.089147

C          x =  0.275322  y =  0.448198  z = -1.663228 angstrom
           Maximum rank =  0   Radius =  0.650 angstrom
                   Q00  =  -0.038573

C          x = -0.600678  y = -0.105802  z =  0.552772 angstrom
           Maximum rank =  0   Radius =  0.650 angstrom
                   Q00  =  -0.102691

C          x =  1.532322  y = -0.011802  z = -1.324228 angstrom
           Maximum rank =  0   Radius =  0.650 angstrom
                   Q00  =  -0.121973

N          x =  2.822322  y = -1.060802  z =  0.541772 angstrom
           Maximum rank =  0   Radius =  0.650 angstrom
                   Q00  =  -0.495792

H          x = -1.761678  y =  0.808198  z = -1.025228 angstrom
           Maximum rank =  0   Radius =  0.325 angstrom
                   Q00  =   0.063133

H          x =  0.100322  y =  0.830198  z = -2.659228 angstrom
           Maximum rank =  0   Radius =  0.325 angstrom
                   Q00  =   0.061008

H          x = -1.417678  y = -0.146802  z =  1.228772 angstrom
           Maximum rank =  0   Radius =  0.325 angstrom
                   Q00  =   0.067529

H          x =  2.345322  y =  0.000198  z = -2.035228 angstrom
           Maximum rank =  0   Radius =  0.325 angstrom
                   Q00  =   0.071430

H          x = -0.070678  y = -0.656802  z =  3.695772 angstrom
           Maximum rank =  0   Radius =  0.325 angstrom
                   Q00  =   0.098901

H          x =  1.247322  y = -1.742802  z =  4.135772 angstrom
           Maximum rank =  0   Radius =  0.325 angstrom
                   Q00  =   0.101753

H          x =  3.226322  y = -1.923802  z =  2.510772 angstrom
           Maximum rank =  0   Radius =  0.325 angstrom
                   Q00  =   0.100785

H          x =  3.717322  y = -1.209802  z =  0.079772 angstrom
           Maximum rank =  0   Radius =  0.325 angstrom
                   Q00  =   0.212427

H          x = -0.146828  y = -2.366502  z =  3.204772 angstrom
           Maximum rank =  0   Radius =  0.325 angstrom
                   Q00  =   0.095326

C          x = -3.816678  y =  2.078198  z = -2.251228 angstrom
           Maximum rank =  0   Radius =  0.650 angstrom
                   Q00  =  -0.245847

C          x = -4.967678  y =  2.903198  z = -2.837228 angstrom
           Maximum rank =  0   Radius =  0.650 angstrom
                   Q00  =  -0.232044

H          x = -3.552678  y =  1.243198  z = -2.893228 angstrom
           Maximum rank =  0   Radius =  0.325 angstrom
                   Q00  =   0.081247

H          x = -2.940678  y =  2.717198  z = -2.127228 angstrom
           Maximum rank =  0   Radius =  0.325 angstrom
                   Q00  =   0.079179

H          x = -4.104678  y =  1.684198  z = -1.276228 angstrom
           Maximum rank =  0   Radius =  0.325 angstrom
                   Q00  =   0.075258

H          x = -4.591678  y =  3.448198  z = -3.700228 angstrom
           Maximum rank =  0   Radius =  0.325 angstrom
                   Q00  =   0.080834

H          x = -5.800068  y =  2.257146  z = -3.153058 angstrom
           Maximum rank =  0   Radius =  0.325 angstrom
                   Q00  =   0.082925

H          x = -5.300638  y =  3.639148  z = -2.090558 angstrom
           Maximum rank =  0   Radius =  0.325 angstrom
                   Q00  =   0.081145

Total multipoles referred to origin at
           x =   0.000000,  y =    0.000000,  z =    0.000000 angstrom
                   Q00  =  -0.000000

Finished at 13:45:17 on 27 Apr 2020 

  DMA results are available in the Python driver through the
	  variable('DMA DISTRIBUTED MULTIPOLES')
  and
	  variable('DMA TOTAL MULTIPOLES')
  commands.


    Psi4 stopped on: Monday, 27 April 2020 01:45PM
    Psi4 wall time for execution: 0:03:52.24

*** Psi4 exiting successfully. Buy a developer a beer!
