
    -----------------------------------------------------------------------
          Psi4: An Open-Source Ab Initio Electronic Structure Package
                               Psi4 1.3.2 release

                         Git: Rev {HEAD} ecbda83 


    R. M. Parrish, L. A. Burns, D. G. A. Smith, A. C. Simmonett,
    A. E. DePrince III, E. G. Hohenstein, U. Bozkaya, A. Yu. Sokolov,
    R. Di Remigio, R. M. Richard, J. F. Gonthier, A. M. James,
    H. R. McAlexander, A. Kumar, M. Saitow, X. Wang, B. P. Pritchard,
    P. Verma, H. F. Schaefer III, K. Patkowski, R. A. King, E. F. Valeev,
    F. A. Evangelista, J. M. Turney, T. D. Crawford, and C. D. Sherrill,
    J. Chem. Theory Comput. 13(7) pp 3185--3197 (2017).
    (doi: 10.1021/acs.jctc.7b00174)


                         Additional Contributions by
    P. Kraus, H. Kruse, M. H. Lechner, M. C. Schieber, R. A. Shaw,
    A. Alenaizan, R. Galvelis, Z. L. Glick, S. Lehtola, and J. P. Misiewicz

    -----------------------------------------------------------------------


    Psi4 started on: Monday, 27 April 2020 04:29AM

    Process ID: 24882
    Host:       ds3
    PSIDATADIR: /theoryfs2/ds/metcalf/miniconda2/envs/tf2gpu/share/psi4
    Memory:     500.0 MiB
    Threads:    1
    
  ==> Input File <==

--------------------------------------------------------------------------
import numpy as np
set {scf_type pk
basis cc-pvdz
d_convergence 10
gdma_switch   0
gdma_limit    0
gdma_origin   [ 0.0,  0.0,  0.0 ]
}
molecule test {
    units Angstrom
    0 1
    --
    0 1
    C                2.237241200715495     0.604807886473018    -1.686624172404969
    C                0.908241200715495    -0.572192113526982     0.211375827595031
    C                2.087241200715495     0.037807886473018    -0.322624172404969
    C                1.203241200715495    -0.984192113526982     1.537375827595031
    C                3.021241200715495    -0.008192113526982     0.664375827595031
    C               -0.364758799284505    -0.820192113526982    -0.306624172404969
    C               -1.301758799284505    -1.465192113526982     0.493375827595031
    C               -0.986758799284505    -1.854192113526982     1.803375827595031
    C                0.269241200715495    -1.617192113526982     2.344375827595031
    N                2.499241200715495    -0.617192113526982     1.782375827595031
    H               -0.602758799284505    -0.516192113526982    -1.314624172404969
    H               -2.290758799284505    -1.673192113526982     0.106375827595031
    H               -1.738758799284505    -2.345192113526982     2.407375827595032
    H                2.976241200715495     1.407807886473018    -1.664624172404969
    H                1.282241200715495     1.047807886473018    -1.973624172404969
    H                4.032241200715496     0.381807886473018     0.580375827595031
    H                3.005241200715495    -0.749192113526982     2.653375827595032
    H                0.513241200715495    -1.916192113526982     3.355375827595032
    H                2.527321200715495    -0.140085813526982    -2.442261172404969
    C               -2.645758799284505     1.827807886473018    -1.517624172404969
    C               -3.519758799284505     1.147807886473018    -2.575624172404968
    C               -2.671758799284505     3.358807886473018    -1.550624172404969
    H               -2.536758799284505     1.370807886473018    -0.566624172404969
    H               -1.636758799284505     1.610807886473018    -1.874624172404969
    H               -3.143758799284505     1.419807886473018    -3.558624172404969
    H               -2.087758799284505     3.705807886473018    -2.404624172404969
    H               -3.691758799284504     3.715807886473018    -1.680624172404969
    H               -4.568038799284505     1.470820886473018    -2.493361172404969
    H               -3.474058799284505     0.053129886473018    -2.477691172404969
    H               -2.285788799284505     3.830700886473018    -0.635011172404969

}
e, wfn = energy('scf', return_wfn=True)
gdma(wfn)
dmavals = variable('DMA DISTRIBUTED MULTIPOLES')
charges = np.array(dmavals)
print(charges)
np.save('SSI-004TRP-014ARG-2-dimer.npy', np.array(charges))--------------------------------------------------------------------------

*** tstart() called on ds3
*** at Mon Apr 27 04:29:54 2020

   => Loading Basis Set <=

    Name: CC-PVDZ
    Role: ORBITAL
    Keyword: BASIS
    atoms 1-9, 20-22   entry C          line   138 file /theoryfs2/ds/metcalf/miniconda2/envs/tf2gpu/share/psi4/basis/cc-pvdz.gbs 
    atoms 10           entry N          line   168 file /theoryfs2/ds/metcalf/miniconda2/envs/tf2gpu/share/psi4/basis/cc-pvdz.gbs 
    atoms 11-19, 23-30 entry H          line    22 file /theoryfs2/ds/metcalf/miniconda2/envs/tf2gpu/share/psi4/basis/cc-pvdz.gbs 


         ---------------------------------------------------------
                                   SCF
               by Justin Turney, Rob Parrish, Andy Simmonett
                          and Daniel G. A. Smith
                              RHF Reference
                        1 Threads,    500 MiB Core
         ---------------------------------------------------------

  ==> Geometry <==

    Molecular point group: c1
    Full point group: C1

    Geometry (in Angstrom), charge = 0, multiplicity = 1:

       Center              X                  Y                   Z               Mass       
    ------------   -----------------  -----------------  -----------------  -----------------
         C            2.237241200715     0.604807886473    -1.686624172405    12.000000000000
         C            0.908241200715    -0.572192113527     0.211375827595    12.000000000000
         C            2.087241200715     0.037807886473    -0.322624172405    12.000000000000
         C            1.203241200715    -0.984192113527     1.537375827595    12.000000000000
         C            3.021241200715    -0.008192113527     0.664375827595    12.000000000000
         C           -0.364758799285    -0.820192113527    -0.306624172405    12.000000000000
         C           -1.301758799285    -1.465192113527     0.493375827595    12.000000000000
         C           -0.986758799285    -1.854192113527     1.803375827595    12.000000000000
         C            0.269241200715    -1.617192113527     2.344375827595    12.000000000000
         N            2.499241200715    -0.617192113527     1.782375827595    14.003074004430
         H           -0.602758799285    -0.516192113527    -1.314624172405     1.007825032230
         H           -2.290758799285    -1.673192113527     0.106375827595     1.007825032230
         H           -1.738758799285    -2.345192113527     2.407375827595     1.007825032230
         H            2.976241200715     1.407807886473    -1.664624172405     1.007825032230
         H            1.282241200715     1.047807886473    -1.973624172405     1.007825032230
         H            4.032241200715     0.381807886473     0.580375827595     1.007825032230
         H            3.005241200715    -0.749192113527     2.653375827595     1.007825032230
         H            0.513241200715    -1.916192113527     3.355375827595     1.007825032230
         H            2.527321200715    -0.140085813527    -2.442261172405     1.007825032230
         C           -2.645758799285     1.827807886473    -1.517624172405    12.000000000000
         C           -3.519758799285     1.147807886473    -2.575624172405    12.000000000000
         C           -2.671758799285     3.358807886473    -1.550624172405    12.000000000000
         H           -2.536758799285     1.370807886473    -0.566624172405     1.007825032230
         H           -1.636758799285     1.610807886473    -1.874624172405     1.007825032230
         H           -3.143758799285     1.419807886473    -3.558624172405     1.007825032230
         H           -2.087758799285     3.705807886473    -2.404624172405     1.007825032230
         H           -3.691758799285     3.715807886473    -1.680624172405     1.007825032230
         H           -4.568038799285     1.470820886473    -2.493361172405     1.007825032230
         H           -3.474058799285     0.053129886473    -2.477691172405     1.007825032230
         H           -2.285788799285     3.830700886473    -0.635011172405     1.007825032230

  Running in c1 symmetry.

  Rotational constants: A =      0.03389  B =      0.01360  C =      0.01087 [cm^-1]
  Rotational constants: A =   1015.88156  B =    407.75331  C =    325.99630 [MHz]
  Nuclear repulsion =  737.938624496238162

  Charge       = 0
  Multiplicity = 1
  Electrons    = 96
  Nalpha       = 48
  Nbeta        = 48

  ==> Algorithm <==

  SCF Algorithm Type is PK.
  DIIS enabled.
  MOM disabled.
  Fractional occupation disabled.
  Guess Type is SAD.
  Energy threshold   = 1.00e-06
  Density threshold  = 1.00e-10
  Integral threshold = 0.00e+00

  ==> Primary Basis <==

  Basis Set: CC-PVDZ
    Blend: CC-PVDZ
    Number of shells: 129
    Number of basis function: 267
    Number of Cartesian functions: 280
    Spherical Harmonics?: true
    Max angular momentum: 2

  ==> Pre-Iterations <==

   -------------------------------------------------------
    Irrep   Nso     Nmo     Nalpha   Nbeta   Ndocc  Nsocc
   -------------------------------------------------------
     A        267     267       0       0       0       0
   -------------------------------------------------------
    Total     267     267      48      48      48       0
   -------------------------------------------------------

  ==> Integral Setup <==

  Using integral reordering PK algorithm.
  Sizing the integral batches needed.
  Building batch lookup table.
   Calculation information:
      Number of atoms:                  30
      Number of AO shells:             129
      Number of primitives:            371
      Number of atomic orbitals:       280
      Number of basis functions:       267

      Integral cutoff                 1.00e-12
      Number of threads:                 1

	Batch   1 pq = [       0,    9405] index = [             0,44231715] size =     44231715
	Batch   2 pq = [    9405,   13301] index = [      44231715,88464951] size =     44233236
	Batch   3 pq = [   13301,   16290] index = [      88464951,132690195] size =     44225244
	Batch   4 pq = [   16290,   18810] index = [     132690195,176917455] size =     44227260
	Batch   5 pq = [   18810,   21030] index = [     176917455,221140965] size =     44223510
	Batch   6 pq = [   21030,   23037] index = [     221140965,265363203] size =     44222238
	Batch   7 pq = [   23037,   24883] index = [     265363203,309594286] size =     44231083
	Batch   8 pq = [   24883,   26601] index = [     309594286,353819901] size =     44225615
	Batch   9 pq = [   26601,   28214] index = [     353819901,398029005] size =     44209104
	Batch  10 pq = [   28214,   29740] index = [     398029005,442248670] size =     44219665
	Batch  11 pq = [   29740,   31191] index = [     442248670,486454836] size =     44206166
	Batch  12 pq = [   31191,   32578] index = [     486454836,530679331] size =     44224495
	Batch  13 pq = [   32578,   33908] index = [     530679331,574893186] size =     44213855
	Batch  14 pq = [   33908,   35188] index = [     574893186,619115266] size =     44222080
	Batch  15 pq = [   35188,   35778] index = [     619115266,640050531] size =     20935265
  Task number: 58
  Buffer size: 11059200
  Buffer per thread: 2
  We computed 32115696 shell quartets total.
  Whereas there are 35158305 unique shell quartets.

  ==> DiskJK: Disk-Based J/K Matrices <==

    J tasked:                  Yes
    K tasked:                  Yes
    wK tasked:                  No
    Memory [MiB]:              375
    Schwarz Cutoff:          1E-12

    OpenMP threads:              1

  Minimum eigenvalue in the overlap matrix is 2.3675383155E-04.
  Using Symmetric Orthogonalization.

  SCF Guess: Superposition of Atomic Densities via on-the-fly atomic UHF.

  ==> Iterations <==

                        Total Energy        Delta E     RMS |[F,P]|

   @RHF iter SAD:  -518.09325173361367   -5.18093e+02   0.00000e+00 

Traceback (most recent call last):
  File "/theoryfs2/ds/metcalf/miniconda2/envs/tf2gpu/bin/psi4", line 287, in <module>
    exec(content)
  File "<string>", line 62, in <module>
  File "/theoryfs2/ds/metcalf/miniconda2/envs/tf2gpu/lib//python3.7/site-packages/psi4/driver/driver.py", line 556, in energy
    wfn = procedures['energy'][lowername](lowername, molecule=molecule, **kwargs)
  File "/theoryfs2/ds/metcalf/miniconda2/envs/tf2gpu/lib//python3.7/site-packages/psi4/driver/procrouting/proc.py", line 2002, in run_scf
    scf_wfn = scf_helper(name, post_scf=False, **kwargs)
  File "/theoryfs2/ds/metcalf/miniconda2/envs/tf2gpu/lib//python3.7/site-packages/psi4/driver/procrouting/proc.py", line 1363, in scf_helper
    e_scf = scf_wfn.compute_energy()
  File "/theoryfs2/ds/metcalf/miniconda2/envs/tf2gpu/lib//python3.7/site-packages/psi4/driver/procrouting/scf_proc/scf_iterator.py", line 87, in scf_compute_energy
    self.iterations()
  File "/theoryfs2/ds/metcalf/miniconda2/envs/tf2gpu/lib//python3.7/site-packages/psi4/driver/procrouting/scf_proc/scf_iterator.py", line 289, in scf_iterate
    self.form_G()

RuntimeError: 
Fatal Error: PSIO Error
Error occurred in file: /scratch/psilocaluser/conda-builds/psi4-multiout_1563933640427/work/psi4/src/psi4/libpsio/error.cc on line: 128
The most recent 5 function calls were:

psi::PSIO::rw(unsigned long, char*, psi::psio_address, unsigned long, int)
psi::PSIO::read_entry(unsigned long, char const*, char*, unsigned long)



Printing out the relevant lines from the Psithon --> Python processed input file:
        H               -4.568038799284505     1.470820886473018    -2.493361172404969
        H               -3.474058799284505     0.053129886473018    -2.477691172404969
        H               -2.285788799284505     3.830700886473018    -0.635011172404969
    ""","test")
    core.IO.set_default_namespace("test")
--> e, wfn = energy('scf', return_wfn=True)
    gdma(wfn)
    dmavals = variable('DMA DISTRIBUTED MULTIPOLES')
    charges = np.array(dmavals)
    print(charges)
    np.save('SSI-004TRP-014ARG-2-dimer.npy', np.array(charges))

    Psi4 stopped on: Monday, 27 April 2020 04:47AM
    Psi4 wall time for execution: 0:18:00.16

*** Psi4 encountered an error. Buy a developer more coffee!
*** Resources and help at github.com/psi4/psi4.
