
    -----------------------------------------------------------------------
          Psi4: An Open-Source Ab Initio Electronic Structure Package
                               Psi4 1.3.2 release

                         Git: Rev {HEAD} ecbda83 


    R. M. Parrish, L. A. Burns, D. G. A. Smith, A. C. Simmonett,
    A. E. DePrince III, E. G. Hohenstein, U. Bozkaya, A. Yu. Sokolov,
    R. Di Remigio, R. M. Richard, J. F. Gonthier, A. M. James,
    H. R. McAlexander, A. Kumar, M. Saitow, X. Wang, B. P. Pritchard,
    P. Verma, H. F. Schaefer III, K. Patkowski, R. A. King, E. F. Valeev,
    F. A. Evangelista, J. M. Turney, T. D. Crawford, and C. D. Sherrill,
    J. Chem. Theory Comput. 13(7) pp 3185--3197 (2017).
    (doi: 10.1021/acs.jctc.7b00174)


                         Additional Contributions by
    P. Kraus, H. Kruse, M. H. Lechner, M. C. Schieber, R. A. Shaw,
    A. Alenaizan, R. Galvelis, Z. L. Glick, S. Lehtola, and J. P. Misiewicz

    -----------------------------------------------------------------------


    Psi4 started on: Tuesday, 28 April 2020 03:43AM

    Process ID: 24207
    Host:       ds3
    PSIDATADIR: /theoryfs2/ds/metcalf/miniconda2/envs/tf2gpu/share/psi4
    Memory:     500.0 MiB
    Threads:    1
    
  ==> Input File <==

--------------------------------------------------------------------------
import numpy as np
set {scf_type pk
basis cc-pvdz
d_convergence 10
gdma_switch   0
gdma_limit    0
gdma_origin   [ 0.0,  0.0,  0.0 ]
}
molecule test {
    units Angstrom
    0 1
    --
    0 1
    C               -3.661608995482148    -0.851566416701500    -0.496953258348883
    C               -4.633608995482148    -1.034566416701500    -1.650953258348883
    C               -4.075608995482147    -1.522566416701500     0.818046741651117
    H               -2.697608995482148    -1.267566416701500    -0.795953258348883
    H               -3.501608995482148     0.213433583298500    -0.333953258348883
    H               -5.605608995482148    -0.605566416701500    -1.393953258348883
    H               -5.050608995482148    -1.151566416701500     1.134046741651116
    H               -4.134608995482147    -2.601566416701500     0.677046741651117
    H               -4.734352995482149    -2.109676416701500    -1.860713258348883
    H               -4.223030995482148    -0.507606416701500    -2.524873258348883
    H               -3.320867995482148    -1.291826416701500     1.584288741651117
    C                3.213391004517852     2.597433583298501     0.924046741651117
    C                0.902391004517852    -0.339566416701500     0.547046741651117
    C                1.619391004517853     0.746433583298500    -0.022953258348883
    C                2.289391004517852     1.424433583298500     1.055046741651117
    C                1.958391004517853     0.744433583298500     2.201046741651117
    C                0.149391004517852    -1.212566416701500    -0.219953258348883
    C                0.092391004517852    -0.998566416701500    -1.584953258348883
    C                0.794391004517852     0.058433583298500    -2.182953258348884
    C                1.556391004517852     0.938433583298500    -1.414953258348883
    N                1.119391004517852    -0.302566416701500     1.898046741651117
    H               -0.354608995482148    -2.052566416701500     0.232046741651117
    H               -0.487608995482148    -1.668566416701500    -2.207953258348883
    H                0.718391004517852    -0.961566416701500     2.571046741651116
    H                0.734391004517852     0.197433583298500    -3.254953258348883
    H                2.290391004517852     1.002433583298500     3.198046741651116
    H                2.075391004517853     1.764433583298500    -1.870953258348883
    H                2.790391004517852     3.454433583298500     1.451046741651117
    H                3.289391004517852     2.857433583298500    -0.130953258348883
    H                4.221725004517852     2.381263583298500     1.306840741651117

}
e, wfn = energy('scf', return_wfn=True)
gdma(wfn)
dmavals = variable('DMA DISTRIBUTED MULTIPOLES')
charges = np.array(dmavals)
print(charges)
np.save('SSI-034LYS-070TRP-1-dimer.npy', np.array(charges))--------------------------------------------------------------------------

*** tstart() called on ds3
*** at Tue Apr 28 03:43:01 2020

   => Loading Basis Set <=

    Name: CC-PVDZ
    Role: ORBITAL
    Keyword: BASIS
    atoms 1-3, 12-20  entry C          line   138 file /theoryfs2/ds/metcalf/miniconda2/envs/tf2gpu/share/psi4/basis/cc-pvdz.gbs 
    atoms 4-11, 22-30 entry H          line    22 file /theoryfs2/ds/metcalf/miniconda2/envs/tf2gpu/share/psi4/basis/cc-pvdz.gbs 
    atoms 21          entry N          line   168 file /theoryfs2/ds/metcalf/miniconda2/envs/tf2gpu/share/psi4/basis/cc-pvdz.gbs 


         ---------------------------------------------------------
                                   SCF
               by Justin Turney, Rob Parrish, Andy Simmonett
                          and Daniel G. A. Smith
                              RHF Reference
                        1 Threads,    500 MiB Core
         ---------------------------------------------------------

  ==> Geometry <==

    Molecular point group: c1
    Full point group: C1

    Geometry (in Angstrom), charge = 0, multiplicity = 1:

       Center              X                  Y                   Z               Mass       
    ------------   -----------------  -----------------  -----------------  -----------------
         C           -3.661608995482    -0.851566416701    -0.496953258349    12.000000000000
         C           -4.633608995482    -1.034566416701    -1.650953258349    12.000000000000
         C           -4.075608995482    -1.522566416701     0.818046741651    12.000000000000
         H           -2.697608995482    -1.267566416701    -0.795953258349     1.007825032230
         H           -3.501608995482     0.213433583299    -0.333953258349     1.007825032230
         H           -5.605608995482    -0.605566416701    -1.393953258349     1.007825032230
         H           -5.050608995482    -1.151566416701     1.134046741651     1.007825032230
         H           -4.134608995482    -2.601566416701     0.677046741651     1.007825032230
         H           -4.734352995482    -2.109676416701    -1.860713258349     1.007825032230
         H           -4.223030995482    -0.507606416701    -2.524873258349     1.007825032230
         H           -3.320867995482    -1.291826416701     1.584288741651     1.007825032230
         C            3.213391004518     2.597433583299     0.924046741651    12.000000000000
         C            0.902391004518    -0.339566416701     0.547046741651    12.000000000000
         C            1.619391004518     0.746433583299    -0.022953258349    12.000000000000
         C            2.289391004518     1.424433583299     1.055046741651    12.000000000000
         C            1.958391004518     0.744433583299     2.201046741651    12.000000000000
         C            0.149391004518    -1.212566416701    -0.219953258349    12.000000000000
         C            0.092391004518    -0.998566416701    -1.584953258349    12.000000000000
         C            0.794391004518     0.058433583299    -2.182953258349    12.000000000000
         C            1.556391004518     0.938433583299    -1.414953258349    12.000000000000
         N            1.119391004518    -0.302566416701     1.898046741651    14.003074004430
         H           -0.354608995482    -2.052566416701     0.232046741651     1.007825032230
         H           -0.487608995482    -1.668566416701    -2.207953258349     1.007825032230
         H            0.718391004518    -0.961566416701     2.571046741651     1.007825032230
         H            0.734391004518     0.197433583299    -3.254953258349     1.007825032230
         H            2.290391004518     1.002433583299     3.198046741651     1.007825032230
         H            2.075391004518     1.764433583299    -1.870953258349     1.007825032230
         H            2.790391004518     3.454433583299     1.451046741651     1.007825032230
         H            3.289391004518     2.857433583299    -0.130953258349     1.007825032230
         H            4.221725004518     2.381263583299     1.306840741651     1.007825032230

  Running in c1 symmetry.

  Rotational constants: A =      0.04272  B =      0.01159  C =      0.01016 [cm^-1]
  Rotational constants: A =   1280.66932  B =    347.51051  C =    304.52915 [MHz]
  Nuclear repulsion =  732.142796518584191

  Charge       = 0
  Multiplicity = 1
  Electrons    = 96
  Nalpha       = 48
  Nbeta        = 48

  ==> Algorithm <==

  SCF Algorithm Type is PK.
  DIIS enabled.
  MOM disabled.
  Fractional occupation disabled.
  Guess Type is SAD.
  Energy threshold   = 1.00e-06
  Density threshold  = 1.00e-10
  Integral threshold = 0.00e+00

  ==> Primary Basis <==

  Basis Set: CC-PVDZ
    Blend: CC-PVDZ
    Number of shells: 129
    Number of basis function: 267
    Number of Cartesian functions: 280
    Spherical Harmonics?: true
    Max angular momentum: 2

  ==> Pre-Iterations <==

   -------------------------------------------------------
    Irrep   Nso     Nmo     Nalpha   Nbeta   Ndocc  Nsocc
   -------------------------------------------------------
     A        267     267       0       0       0       0
   -------------------------------------------------------
    Total     267     267      48      48      48       0
   -------------------------------------------------------

  ==> Integral Setup <==

  Using integral reordering PK algorithm.
  Sizing the integral batches needed.
  Building batch lookup table.
   Calculation information:
      Number of atoms:                  30
      Number of AO shells:             129
      Number of primitives:            371
      Number of atomic orbitals:       280
      Number of basis functions:       267

      Integral cutoff                 1.00e-12
      Number of threads:                 1

	Batch   1 pq = [       0,    9405] index = [             0,44231715] size =     44231715
	Batch   2 pq = [    9405,   13301] index = [      44231715,88464951] size =     44233236
	Batch   3 pq = [   13301,   16290] index = [      88464951,132690195] size =     44225244
	Batch   4 pq = [   16290,   18810] index = [     132690195,176917455] size =     44227260
	Batch   5 pq = [   18810,   21030] index = [     176917455,221140965] size =     44223510
	Batch   6 pq = [   21030,   23037] index = [     221140965,265363203] size =     44222238
	Batch   7 pq = [   23037,   24883] index = [     265363203,309594286] size =     44231083
	Batch   8 pq = [   24883,   26601] index = [     309594286,353819901] size =     44225615
	Batch   9 pq = [   26601,   28214] index = [     353819901,398029005] size =     44209104
	Batch  10 pq = [   28214,   29740] index = [     398029005,442248670] size =     44219665
	Batch  11 pq = [   29740,   31191] index = [     442248670,486454836] size =     44206166
	Batch  12 pq = [   31191,   32578] index = [     486454836,530679331] size =     44224495
	Batch  13 pq = [   32578,   33908] index = [     530679331,574893186] size =     44213855
	Batch  14 pq = [   33908,   35188] index = [     574893186,619115266] size =     44222080
	Batch  15 pq = [   35188,   35778] index = [     619115266,640050531] size =     20935265
  Task number: 58
  Buffer size: 11059200
  Buffer per thread: 2
  We computed 32073281 shell quartets total.
  Whereas there are 35158305 unique shell quartets.

  ==> DiskJK: Disk-Based J/K Matrices <==

    J tasked:                  Yes
    K tasked:                  Yes
    wK tasked:                  No
    Memory [MiB]:              375
    Schwarz Cutoff:          1E-12

    OpenMP threads:              1

  Minimum eigenvalue in the overlap matrix is 2.4064896965E-04.
  Using Symmetric Orthogonalization.

  SCF Guess: Superposition of Atomic Densities via on-the-fly atomic UHF.

  ==> Iterations <==

                        Total Energy        Delta E     RMS |[F,P]|

   @RHF iter SAD:  -518.00580320412575   -5.18006e+02   0.00000e+00 
   @RHF iter   1:  -518.49183263057103   -4.86029e-01   2.49920e-03 DIIS
   @RHF iter   2:  -518.75085957353338   -2.59027e-01   1.11686e-03 DIIS
   @RHF iter   3:  -518.79793225987612   -4.70727e-02   2.88211e-04 DIIS
   @RHF iter   4:  -518.80212916797950   -4.19691e-03   1.32228e-04 DIIS
   @RHF iter   5:  -518.80282692780293   -6.97760e-04   1.94932e-05 DIIS
   @RHF iter   6:  -518.80285794464623   -3.10168e-05   8.75481e-06 DIIS
   @RHF iter   7:  -518.80286432997514   -6.38533e-06   3.52943e-06 DIIS
   @RHF iter   8:  -518.80286603091122   -1.70094e-06   1.50860e-06 DIIS
   @RHF iter   9:  -518.80286641850785   -3.87597e-07   6.52449e-07 DIIS
   @RHF iter  10:  -518.80286649750747   -7.89996e-08   2.86399e-07 DIIS
   @RHF iter  11:  -518.80286651524466   -1.77372e-08   1.12401e-07 DIIS
   @RHF iter  12:  -518.80286651790561   -2.66095e-09   4.15107e-08 DIIS
   @RHF iter  13:  -518.80286651812105   -2.15437e-10   1.16310e-08 DIIS
   @RHF iter  14:  -518.80286651813901   -1.79625e-11   4.62583e-09 DIIS
   @RHF iter  15:  -518.80286651813674    2.27374e-12   2.38410e-09 DIIS
   @RHF iter  16:  -518.80286651814185   -5.11591e-12   1.03781e-09 DIIS
   @RHF iter  17:  -518.80286651813981    2.04636e-12   4.77019e-10 DIIS
   @RHF iter  18:  -518.80286651814617   -6.36646e-12   1.77078e-10 DIIS
   @RHF iter  19:  -518.80286651814288    3.29692e-12   6.87383e-11 DIIS
  Energy and wave function converged.


  ==> Post-Iterations <==

    Orbital Energies [Eh]
    ---------------------

    Doubly Occupied:                                                      

       1A    -15.603433     2A    -11.265058     3A    -11.262390  
       4A    -11.231197     5A    -11.229629     6A    -11.228338  
       7A    -11.226733     8A    -11.221998     9A    -11.221911  
      10A    -11.219226    11A    -11.214784    12A    -11.213466  
      13A    -11.211342    14A     -1.294153    15A     -1.127647  
      16A     -1.071816    17A     -1.049035    18A     -0.996923  
      19A     -0.986139    20A     -0.931327    21A     -0.922620  
      22A     -0.839263    23A     -0.802517    24A     -0.788975  
      25A     -0.752624    26A     -0.719620    27A     -0.661234  
      28A     -0.642771    29A     -0.621835    30A     -0.603741  
      31A     -0.591863    32A     -0.590680    33A     -0.589169  
      34A     -0.568531    35A     -0.553604    36A     -0.548637  
      37A     -0.537809    38A     -0.531859    39A     -0.524693  
      40A     -0.494268    41A     -0.471590    42A     -0.468499  
      43A     -0.465392    44A     -0.463372    45A     -0.455677  
      46A     -0.372217    47A     -0.295538    48A     -0.271982  

    Virtual:                                                              

      49A      0.123289    50A      0.164785    51A      0.170156  
      52A      0.182860    53A      0.191298    54A      0.211907  
      55A      0.213424    56A      0.221716    57A      0.229481  
      58A      0.239236    59A      0.241234    60A      0.253809  
      61A      0.260622    62A      0.276267    63A      0.279212  
      64A      0.293399    65A      0.299209    66A      0.306094  
      67A      0.319555    68A      0.338109    69A      0.368248  
      70A      0.372447    71A      0.383099    72A      0.404011  
      73A      0.428004    74A      0.431097    75A      0.446741  
      76A      0.465873    77A      0.484198    78A      0.505656  
      79A      0.529361    80A      0.579783    81A      0.595641  
      82A      0.608586    83A      0.617119    84A      0.620701  
      85A      0.622484    86A      0.639215    87A      0.643987  
      88A      0.644292    89A      0.660694    90A      0.694548  
      91A      0.707655    92A      0.716232    93A      0.723583  
      94A      0.734061    95A      0.742003    96A      0.747200  
      97A      0.758606    98A      0.762036    99A      0.769139  
     100A      0.782776   101A      0.789073   102A      0.791427  
     103A      0.793824   104A      0.813317   105A      0.840954  
     106A      0.852143   107A      0.866354   108A      0.876416  
     109A      0.880549   110A      0.887080   111A      0.895502  
     112A      0.895844   113A      0.899321   114A      0.902842  
     115A      0.906028   116A      0.906556   117A      0.911959  
     118A      0.920520   119A      0.930148   120A      0.942174  
     121A      0.948440   122A      0.952059   123A      0.966117  
     124A      0.972599   125A      0.983374   126A      0.992673  
     127A      1.012033   128A      1.016651   129A      1.072398  
     130A      1.088243   131A      1.097180   132A      1.123170  
     133A      1.128850   134A      1.135779   135A      1.140512  
     136A      1.149905   137A      1.154047   138A      1.172604  
     139A      1.204176   140A      1.215487   141A      1.228167  
     142A      1.242016   143A      1.248759   144A      1.270904  
     145A      1.281194   146A      1.288984   147A      1.299158  
     148A      1.327928   149A      1.333368   150A      1.361310  
     151A      1.364318   152A      1.391535   153A      1.433929  
     154A      1.449328   155A      1.479043   156A      1.498642  
     157A      1.512568   158A      1.530236   159A      1.546319  
     160A      1.557714   161A      1.594983   162A      1.623278  
     163A      1.636363   164A      1.642994   165A      1.660317  
     166A      1.679897   167A      1.682413   168A      1.685255  
     169A      1.691217   170A      1.698165   171A      1.741338  
     172A      1.746726   173A      1.768220   174A      1.788525  
     175A      1.814909   176A      1.826144   177A      1.843908  
     178A      1.862197   179A      1.873986   180A      1.876465  
     181A      1.882637   182A      1.887687   183A      1.894902  
     184A      1.897016   185A      1.907871   186A      1.919992  
     187A      1.920997   188A      1.930026   189A      1.939609  
     190A      1.957457   191A      1.968597   192A      1.978042  
     193A      1.980330   194A      1.981910   195A      1.994155  
     196A      1.997009   197A      1.998664   198A      2.006000  
     199A      2.007544   200A      2.021084   201A      2.022170  
     202A      2.049189   203A      2.068315   204A      2.078603  
     205A      2.088252   206A      2.095463   207A      2.110016  
     208A      2.130732   209A      2.135825   210A      2.143733  
     211A      2.158621   212A      2.171959   213A      2.176735  
     214A      2.191390   215A      2.227899   216A      2.262184  
     217A      2.272647   218A      2.286892   219A      2.291549  
     220A      2.310738   221A      2.315355   222A      2.333136  
     223A      2.347479   224A      2.348995   225A      2.364179  
     226A      2.396775   227A      2.406415   228A      2.451564  
     229A      2.468571   230A      2.496683   231A      2.532709  
     232A      2.535827   233A      2.586955   234A      2.595035  
     235A      2.600602   236A      2.616658   237A      2.621405  
     238A      2.627713   239A      2.665752   240A      2.680063  
     241A      2.740609   242A      2.755159   243A      2.761637  
     244A      2.770467   245A      2.774088   246A      2.780458  
     247A      2.788672   248A      2.797758   249A      2.805496  
     250A      2.812992   251A      2.841941   252A      2.860772  
     253A      2.918509   254A      2.928667   255A      2.958758  
     256A      2.968585   257A      2.976038   258A      3.029325  
     259A      3.047268   260A      3.070595   261A      3.092443  
     262A      3.113906   263A      3.204195   264A      3.295703  
     265A      3.372762   266A      3.732049   267A      3.948845  

    Final Occupation by Irrep:
              A 
    DOCC [    48 ]

  @RHF Final Energy:  -518.80286651814288

   => Energetics <=

    Nuclear Repulsion Energy =            732.1427965185841913
    One-Electron Energy =               -2153.9770745855698806
    Two-Electron Energy =                 903.0314115488428115
    Total Energy =                       -518.8028665181428778

Computation Completed


Properties will be evaluated at   0.000000,   0.000000,   0.000000 [a0]

Properties computed using the SCF density matrix

  Nuclear Dipole Moment: [e a0]
     X:   -16.8687      Y:    -2.1996      Z:    -2.0866

  Electronic Dipole Moment: [e a0]
     X:    16.9412      Y:     2.0470      Z:     2.8546

  Dipole Moment: [e a0]
     X:     0.0724      Y:    -0.1525      Z:     0.7681     Total:     0.7864

  Dipole Moment: [D]
     X:     0.1840      Y:    -0.3877      Z:     1.9523     Total:     1.9989


*** tstop() called on ds3 at Tue Apr 28 03:49:41 2020
Module time:
	user time   =     252.18 seconds =       4.20 minutes
	system time =     101.10 seconds =       1.68 minutes
	total time  =        400 seconds =       6.67 minutes
Total time:
	user time   =     252.18 seconds =       4.20 minutes
	system time =     101.10 seconds =       1.68 minutes
	total time  =        400 seconds =       6.67 minutes
                                     G D M A

                                 by Anthony Stone

                           version 2.2.06, 22 June 2011

               Distributed Multipoles from Gaussian wavefunctions


Starting at 3:49:41 on 28 Apr 2020  


Using SCF density matrix from file ./SSI/SSI-034LYS-070TRP-1-dimer.test.24207.fchk


                         Distributed Multipole Analysis

Standard DMA

Positions and radii in angstrom
Multipole moments in atomic units, ea_0^k for rank k

C          x = -3.661609  y = -0.851566  z = -0.496953 angstrom
           Maximum rank =  0   Radius =  0.650 angstrom
                   Q00  =  -0.076294

C          x = -4.633609  y = -1.034566  z = -1.650953 angstrom
           Maximum rank =  0   Radius =  0.650 angstrom
                   Q00  =  -0.239069

C          x = -4.075609  y = -1.522566  z =  0.818047 angstrom
           Maximum rank =  0   Radius =  0.650 angstrom
                   Q00  =  -0.241209

H          x = -2.697609  y = -1.267566  z = -0.795953 angstrom
           Maximum rank =  0   Radius =  0.325 angstrom
                   Q00  =   0.046025

H          x = -3.501609  y =  0.213434  z = -0.333953 angstrom
           Maximum rank =  0   Radius =  0.325 angstrom
                   Q00  =   0.049779

H          x = -5.605609  y = -0.605566  z = -1.393953 angstrom
           Maximum rank =  0   Radius =  0.325 angstrom
                   Q00  =   0.075667

H          x = -5.050609  y = -1.151566  z =  1.134047 angstrom
           Maximum rank =  0   Radius =  0.325 angstrom
                   Q00  =   0.077472

H          x = -4.134609  y = -2.601566  z =  0.677047 angstrom
           Maximum rank =  0   Radius =  0.325 angstrom
                   Q00  =   0.073764

H          x = -4.734353  y = -2.109676  z = -1.860713 angstrom
           Maximum rank =  0   Radius =  0.325 angstrom
                   Q00  =   0.071175

H          x = -4.223031  y = -0.507606  z = -2.524873 angstrom
           Maximum rank =  0   Radius =  0.325 angstrom
                   Q00  =   0.083522

H          x = -3.320868  y = -1.291826  z =  1.584289 angstrom
           Maximum rank =  0   Radius =  0.325 angstrom
                   Q00  =   0.078396

C          x =  3.213391  y =  2.597434  z =  0.924047 angstrom
           Maximum rank =  0   Radius =  0.650 angstrom
                   Q00  =  -0.220064

C          x =  0.902391  y = -0.339566  z =  0.547047 angstrom
           Maximum rank =  0   Radius =  0.650 angstrom
                   Q00  =   0.275537

C          x =  1.619391  y =  0.746434  z = -0.022953 angstrom
           Maximum rank =  0   Radius =  0.650 angstrom
                   Q00  =  -0.045180

C          x =  2.289391  y =  1.424434  z =  1.055047 angstrom
           Maximum rank =  0   Radius =  0.650 angstrom
                   Q00  =  -0.126854

C          x =  1.958391  y =  0.744434  z =  2.201047 angstrom
           Maximum rank =  0   Radius =  0.650 angstrom
                   Q00  =   0.075022

C          x =  0.149391  y = -1.212566  z = -0.219953 angstrom
           Maximum rank =  0   Radius =  0.650 angstrom
                   Q00  =  -0.121418

C          x =  0.092391  y = -0.998566  z = -1.584953 angstrom
           Maximum rank =  0   Radius =  0.650 angstrom
                   Q00  =  -0.044312

C          x =  0.794391  y =  0.058434  z = -2.182953 angstrom
           Maximum rank =  0   Radius =  0.650 angstrom
                   Q00  =  -0.094739

C          x =  1.556391  y =  0.938434  z = -1.414953 angstrom
           Maximum rank =  0   Radius =  0.650 angstrom
                   Q00  =  -0.099874

N          x =  1.119391  y = -0.302566  z =  1.898047 angstrom
           Maximum rank =  0   Radius =  0.650 angstrom
                   Q00  =  -0.498998

H          x = -0.354609  y = -2.052566  z =  0.232047 angstrom
           Maximum rank =  0   Radius =  0.325 angstrom
                   Q00  =   0.073643

H          x = -0.487609  y = -1.668566  z = -2.207953 angstrom
           Maximum rank =  0   Radius =  0.325 angstrom
                   Q00  =   0.063758

H          x =  0.718391  y = -0.961566  z =  2.571047 angstrom
           Maximum rank =  0   Radius =  0.325 angstrom
                   Q00  =   0.219431

H          x =  0.734391  y =  0.197434  z = -3.254953 angstrom
           Maximum rank =  0   Radius =  0.325 angstrom
                   Q00  =   0.060764

H          x =  2.290391  y =  1.002434  z =  3.198047 angstrom
           Maximum rank =  0   Radius =  0.325 angstrom
                   Q00  =   0.098684

H          x =  2.075391  y =  1.764434  z = -1.870953 angstrom
           Maximum rank =  0   Radius =  0.325 angstrom
                   Q00  =   0.070490

H          x =  2.790391  y =  3.454434  z =  1.451047 angstrom
           Maximum rank =  0   Radius =  0.325 angstrom
                   Q00  =   0.102644

H          x =  3.289391  y =  2.857434  z = -0.130953 angstrom
           Maximum rank =  0   Radius =  0.325 angstrom
                   Q00  =   0.108807

H          x =  4.221725  y =  2.381264  z =  1.306841 angstrom
           Maximum rank =  0   Radius =  0.325 angstrom
                   Q00  =   0.103430

Total multipoles referred to origin at
           x =   0.000000,  y =    0.000000,  z =    0.000000 angstrom
                   Q00  =  -0.000000

Finished at 3:49:41 on 28 Apr 2020  

  DMA results are available in the Python driver through the
	  variable('DMA DISTRIBUTED MULTIPOLES')
  and
	  variable('DMA TOTAL MULTIPOLES')
  commands.


    Psi4 stopped on: Tuesday, 28 April 2020 03:49AM
    Psi4 wall time for execution: 0:06:40.33

*** Psi4 exiting successfully. Buy a developer a beer!
