
    -----------------------------------------------------------------------
          Psi4: An Open-Source Ab Initio Electronic Structure Package
                               Psi4 1.3.2 release

                         Git: Rev {HEAD} ecbda83 


    R. M. Parrish, L. A. Burns, D. G. A. Smith, A. C. Simmonett,
    A. E. DePrince III, E. G. Hohenstein, U. Bozkaya, A. Yu. Sokolov,
    R. Di Remigio, R. M. Richard, J. F. Gonthier, A. M. James,
    H. R. McAlexander, A. Kumar, M. Saitow, X. Wang, B. P. Pritchard,
    P. Verma, H. F. Schaefer III, K. Patkowski, R. A. King, E. F. Valeev,
    F. A. Evangelista, J. M. Turney, T. D. Crawford, and C. D. Sherrill,
    J. Chem. Theory Comput. 13(7) pp 3185--3197 (2017).
    (doi: 10.1021/acs.jctc.7b00174)


                         Additional Contributions by
    P. Kraus, H. Kruse, M. H. Lechner, M. C. Schieber, R. A. Shaw,
    A. Alenaizan, R. Galvelis, Z. L. Glick, S. Lehtola, and J. P. Misiewicz

    -----------------------------------------------------------------------


    Psi4 started on: Monday, 27 April 2020 02:01PM

    Process ID: 8541
    Host:       ds3
    PSIDATADIR: /theoryfs2/ds/metcalf/miniconda2/envs/tf2gpu/share/psi4
    Memory:     500.0 MiB
    Threads:    1
    
  ==> Input File <==

--------------------------------------------------------------------------
import numpy as np
set {scf_type pk
basis cc-pvdz
d_convergence 10
gdma_switch   0
gdma_limit    0
gdma_origin   [ 0.0,  0.0,  0.0 ]
}
molecule test {
    units Angstrom
    0 1
    --
    0 1
    C               -0.193804382547455    -0.303492657714428     2.122777772506737
    C                0.696195617452545    -1.552492657714427     2.153777772506738
    H                0.387195617452545     0.578507342285573     2.400777772506737
    H               -0.608804382547455    -0.157492657714428     1.130777772506737
    H               -1.026804382547455    -0.422492657714428     2.817777772506737
    H                1.635195617452545    -1.304492657714427     1.659777772506737
    H                0.902795617452545    -1.839442657714427     3.195399772506737
    H                0.227595617452545    -2.366642657714428     1.581439772506737
    C               -0.565804382547455     0.630507342285573    -1.509222227493263
    C                0.059195617452545     1.218507342285573    -2.767222227493262
    H               -0.859804382547455    -0.408492657714427    -1.669222227493263
    H                0.168195617452545     0.677507342285572    -0.704222227493263
    H               -1.439804382547455     1.217507342285573    -1.225222227493263
    H                0.427195617452545     2.218507342285573    -2.526222227493263
    H               -0.675384382547455     1.291216342285572    -3.582762227493263
    H                0.912645617452545     0.598808342285573    -3.079622227493263

}
e, wfn = energy('scf', return_wfn=True)
gdma(wfn)
dmavals = variable('DMA DISTRIBUTED MULTIPOLES')
charges = np.array(dmavals)
print(charges)
np.save('SSI-054VAL-091ALA-1-dimer.npy', np.array(charges))--------------------------------------------------------------------------

*** tstart() called on ds3
*** at Mon Apr 27 14:01:14 2020

   => Loading Basis Set <=

    Name: CC-PVDZ
    Role: ORBITAL
    Keyword: BASIS
    atoms 1-2, 9-10  entry C          line   138 file /theoryfs2/ds/metcalf/miniconda2/envs/tf2gpu/share/psi4/basis/cc-pvdz.gbs 
    atoms 3-8, 11-16 entry H          line    22 file /theoryfs2/ds/metcalf/miniconda2/envs/tf2gpu/share/psi4/basis/cc-pvdz.gbs 


         ---------------------------------------------------------
                                   SCF
               by Justin Turney, Rob Parrish, Andy Simmonett
                          and Daniel G. A. Smith
                              RHF Reference
                        1 Threads,    500 MiB Core
         ---------------------------------------------------------

  ==> Geometry <==

    Molecular point group: c1
    Full point group: C1

    Geometry (in Angstrom), charge = 0, multiplicity = 1:

       Center              X                  Y                   Z               Mass       
    ------------   -----------------  -----------------  -----------------  -----------------
         C           -0.193804382547    -0.303492657714     2.122777772507    12.000000000000
         C            0.696195617453    -1.552492657714     2.153777772507    12.000000000000
         H            0.387195617453     0.578507342286     2.400777772507     1.007825032230
         H           -0.608804382547    -0.157492657714     1.130777772507     1.007825032230
         H           -1.026804382547    -0.422492657714     2.817777772507     1.007825032230
         H            1.635195617453    -1.304492657714     1.659777772507     1.007825032230
         H            0.902795617453    -1.839442657714     3.195399772507     1.007825032230
         H            0.227595617453    -2.366642657714     1.581439772507     1.007825032230
         C           -0.565804382547     0.630507342286    -1.509222227493    12.000000000000
         C            0.059195617453     1.218507342286    -2.767222227493    12.000000000000
         H           -0.859804382547    -0.408492657714    -1.669222227493     1.007825032230
         H            0.168195617453     0.677507342286    -0.704222227493     1.007825032230
         H           -1.439804382547     1.217507342286    -1.225222227493     1.007825032230
         H            0.427195617453     2.218507342286    -2.526222227493     1.007825032230
         H           -0.675384382547     1.291216342286    -3.582762227493     1.007825032230
         H            0.912645617453     0.598808342286    -3.079622227493     1.007825032230

  Running in c1 symmetry.

  Rotational constants: A =      0.50925  B =      0.04654  C =      0.04473 [cm^-1]
  Rotational constants: A =  15266.80801  B =   1395.21323  C =   1340.95303 [MHz]
  Nuclear repulsion =  121.576520581515297

  Charge       = 0
  Multiplicity = 1
  Electrons    = 36
  Nalpha       = 18
  Nbeta        = 18

  ==> Algorithm <==

  SCF Algorithm Type is PK.
  DIIS enabled.
  MOM disabled.
  Fractional occupation disabled.
  Guess Type is SAD.
  Energy threshold   = 1.00e-06
  Density threshold  = 1.00e-10
  Integral threshold = 0.00e+00

  ==> Primary Basis <==

  Basis Set: CC-PVDZ
    Blend: CC-PVDZ
    Number of shells: 60
    Number of basis function: 116
    Number of Cartesian functions: 120
    Spherical Harmonics?: true
    Max angular momentum: 2

  ==> Pre-Iterations <==

   -------------------------------------------------------
    Irrep   Nso     Nmo     Nalpha   Nbeta   Ndocc  Nsocc
   -------------------------------------------------------
     A        116     116       0       0       0       0
   -------------------------------------------------------
    Total     116     116      18      18      18       0
   -------------------------------------------------------

  ==> Integral Setup <==

  Using integral reordering PK algorithm.
  Sizing the integral batches needed.
  Building batch lookup table.
   Calculation information:
      Number of atoms:                  16
      Number of AO shells:              60
      Number of primitives:            148
      Number of atomic orbitals:       120
      Number of basis functions:       116

      Integral cutoff                 1.00e-12
      Number of threads:                 1

	Batch   1 pq = [       0,    6786] index = [             0,23028291] size =     23028291
  Task number: 3
  Buffer size: 11059200
  Buffer per thread: 2
  We computed 1403623 shell quartets total.
  Whereas there are 1675365 unique shell quartets.

  ==> DiskJK: Disk-Based J/K Matrices <==

    J tasked:                  Yes
    K tasked:                  Yes
    wK tasked:                  No
    Memory [MiB]:              375
    Schwarz Cutoff:          1E-12

    OpenMP threads:              1

  Minimum eigenvalue in the overlap matrix is 5.9054691297E-03.
  Using Symmetric Orthogonalization.

  SCF Guess: Superposition of Atomic Densities via on-the-fly atomic UHF.

  ==> Iterations <==

                        Total Energy        Delta E     RMS |[F,P]|

   @RHF iter SAD:  -157.35991412510782   -1.57360e+02   0.00000e+00 
   @RHF iter   1:  -158.30610235692492   -9.46188e-01   4.20747e-03 DIIS
   @RHF iter   2:  -158.43929462043727   -1.33192e-01   1.78745e-03 DIIS
   @RHF iter   3:  -158.46252173099384   -2.32271e-02   3.50349e-04 DIIS
   @RHF iter   4:  -158.46436559621299   -1.84387e-03   3.94814e-05 DIIS
   @RHF iter   5:  -158.46439040180107   -2.48056e-05   7.01698e-06 DIIS
   @RHF iter   6:  -158.46439110838440   -7.06583e-07   1.39288e-06 DIIS
   @RHF iter   7:  -158.46439112694449   -1.85601e-08   3.36614e-07 DIIS
   @RHF iter   8:  -158.46439112806601   -1.12152e-09   4.58277e-08 DIIS
   @RHF iter   9:  -158.46439112810179   -3.57829e-11   1.05083e-08 DIIS
   @RHF iter  10:  -158.46439112810313   -1.33582e-12   3.20364e-09 DIIS
   @RHF iter  11:  -158.46439112810361   -4.83169e-13   8.80279e-10 DIIS
   @RHF iter  12:  -158.46439112810341    1.98952e-13   1.80452e-10 DIIS
   @RHF iter  13:  -158.46439112810316    2.55795e-13   3.20865e-11 DIIS
  Energy and wave function converged.


  ==> Post-Iterations <==

    Orbital Energies [Eh]
    ---------------------

    Doubly Occupied:                                                      

       1A    -11.219484     2A    -11.218947     3A    -11.217278  
       4A    -11.214351     5A     -1.021030     6A     -1.015757  
       7A     -0.838885     8A     -0.832929     9A     -0.604413  
      10A     -0.599587    11A     -0.596947    12A     -0.593707  
      13A     -0.506119    14A     -0.495558    15A     -0.489821  
      16A     -0.485715    17A     -0.483360    18A     -0.477744  

    Virtual:                                                              

      19A      0.173335    20A      0.196458    21A      0.223509  
      22A      0.233416    23A      0.247197    24A      0.256904  
      25A      0.265027    26A      0.271325    27A      0.283304  
      28A      0.285783    29A      0.314361    30A      0.324299  
      31A      0.391032    32A      0.429373    33A      0.588687  
      34A      0.593099    35A      0.602974    36A      0.605993  
      37A      0.610983    38A      0.652757    39A      0.667141  
      40A      0.687592    41A      0.705154    42A      0.766135  
      43A      0.842082    44A      0.874051    45A      0.885141  
      46A      0.886870    47A      0.892659    48A      0.894922  
      49A      0.900137    50A      0.906296    51A      0.912762  
      52A      0.922793    53A      0.932712    54A      0.944661  
      55A      0.993208    56A      1.025853    57A      1.118835  
      58A      1.122938    59A      1.124380    60A      1.141532  
      61A      1.222616    62A      1.305946    63A      1.468917  
      64A      1.475884    65A      1.480853    66A      1.494958  
      67A      1.576911    68A      1.589009    69A      1.677483  
      70A      1.680434    71A      1.690402    72A      1.700921  
      73A      1.836874    74A      1.855381    75A      1.867774  
      76A      1.877893    77A      1.890474    78A      1.922758  
      79A      1.931274    80A      1.938067    81A      1.938996  
      82A      1.941587    83A      1.952135    84A      1.959896  
      85A      1.961287    86A      1.963826    87A      1.981188  
      88A      2.052676    89A      2.104062    90A      2.112655  
      91A      2.123997    92A      2.155825    93A      2.287444  
      94A      2.297205    95A      2.312191    96A      2.338193  
      97A      2.434780    98A      2.448610    99A      2.451913  
     100A      2.468020   101A      2.562690   102A      2.569043  
     103A      2.578665   104A      2.598420   105A      2.753228  
     106A      2.763826   107A      2.779244   108A      2.806962  
     109A      2.831740   110A      2.841495   111A      2.847650  
     112A      2.859019   113A      2.934829   114A      2.945821  
     115A      2.952747   116A      2.991887  

    Final Occupation by Irrep:
              A 
    DOCC [    18 ]

  @RHF Final Energy:  -158.46439112810316

   => Energetics <=

    Nuclear Repulsion Energy =            121.5765205815152967
    One-Electron Energy =                -452.2585602512787091
    Two-Electron Energy =                 172.2176485416602532
    Total Energy =                       -158.4643911281031592

Computation Completed


Properties will be evaluated at   0.000000,   0.000000,   0.000000 [a0]

Properties computed using the SCF density matrix

  Nuclear Dipole Moment: [e a0]
     X:     0.0471      Y:     0.0778      Z:    -0.0012

  Electronic Dipole Moment: [e a0]
     X:    -0.0495      Y:    -0.0575      Z:    -0.0154

  Dipole Moment: [e a0]
     X:    -0.0024      Y:     0.0203      Z:    -0.0166     Total:     0.0263

  Dipole Moment: [D]
     X:    -0.0061      Y:     0.0516      Z:    -0.0422     Total:     0.0669


*** tstop() called on ds3 at Mon Apr 27 14:01:24 2020
Module time:
	user time   =       7.58 seconds =       0.13 minutes
	system time =       2.96 seconds =       0.05 minutes
	total time  =         10 seconds =       0.17 minutes
Total time:
	user time   =       7.58 seconds =       0.13 minutes
	system time =       2.96 seconds =       0.05 minutes
	total time  =         10 seconds =       0.17 minutes
                                     G D M A

                                 by Anthony Stone

                           version 2.2.06, 22 June 2011

               Distributed Multipoles from Gaussian wavefunctions


Starting at 14:1:24 on 27 Apr 2020  


Using SCF density matrix from file ./SSI/SSI-054VAL-091ALA-1-dimer.test.8541.fchk


                         Distributed Multipole Analysis

Standard DMA

Positions and radii in angstrom
Multipole moments in atomic units, ea_0^k for rank k

C          x = -0.193804  y = -0.303493  z =  2.122778 angstrom
           Maximum rank =  0   Radius =  0.650 angstrom
                   Q00  =  -0.242883

C          x =  0.696196  y = -1.552493  z =  2.153778 angstrom
           Maximum rank =  0   Radius =  0.650 angstrom
                   Q00  =  -0.235801

H          x =  0.387196  y =  0.578507  z =  2.400778 angstrom
           Maximum rank =  0   Radius =  0.325 angstrom
                   Q00  =   0.076365

H          x = -0.608804  y = -0.157493  z =  1.130778 angstrom
           Maximum rank =  0   Radius =  0.325 angstrom
                   Q00  =   0.087461

H          x = -1.026804  y = -0.422493  z =  2.817778 angstrom
           Maximum rank =  0   Radius =  0.325 angstrom
                   Q00  =   0.076693

H          x =  1.635196  y = -1.304493  z =  1.659778 angstrom
           Maximum rank =  0   Radius =  0.325 angstrom
                   Q00  =   0.075228

H          x =  0.902796  y = -1.839443  z =  3.195400 angstrom
           Maximum rank =  0   Radius =  0.325 angstrom
                   Q00  =   0.080954

H          x =  0.227596  y = -2.366643  z =  1.581440 angstrom
           Maximum rank =  0   Radius =  0.325 angstrom
                   Q00  =   0.079323

C          x = -0.565804  y =  0.630507  z = -1.509222 angstrom
           Maximum rank =  0   Radius =  0.650 angstrom
                   Q00  =  -0.235146

C          x =  0.059196  y =  1.218507  z = -2.767222 angstrom
           Maximum rank =  0   Radius =  0.650 angstrom
                   Q00  =  -0.234478

H          x = -0.859804  y = -0.408493  z = -1.669222 angstrom
           Maximum rank =  0   Radius =  0.325 angstrom
                   Q00  =   0.078319

H          x =  0.168196  y =  0.677507  z = -0.704222 angstrom
           Maximum rank =  0   Radius =  0.325 angstrom
                   Q00  =   0.078140

H          x = -1.439804  y =  1.217507  z = -1.225222 angstrom
           Maximum rank =  0   Radius =  0.325 angstrom
                   Q00  =   0.078891

H          x =  0.427196  y =  2.218507  z = -2.526222 angstrom
           Maximum rank =  0   Radius =  0.325 angstrom
                   Q00  =   0.078105

H          x = -0.675384  y =  1.291216  z = -3.582762 angstrom
           Maximum rank =  0   Radius =  0.325 angstrom
                   Q00  =   0.080267

H          x =  0.912646  y =  0.598808  z = -3.079622 angstrom
           Maximum rank =  0   Radius =  0.325 angstrom
                   Q00  =   0.078562

Total multipoles referred to origin at
           x =   0.000000,  y =    0.000000,  z =    0.000000 angstrom
                   Q00  =  -0.000000

Finished at 14:1:24 on 27 Apr 2020  

  DMA results are available in the Python driver through the
	  variable('DMA DISTRIBUTED MULTIPOLES')
  and
	  variable('DMA TOTAL MULTIPOLES')
  commands.


    Psi4 stopped on: Monday, 27 April 2020 02:01PM
    Psi4 wall time for execution: 0:00:10.36

*** Psi4 exiting successfully. Buy a developer a beer!
