
    -----------------------------------------------------------------------
          Psi4: An Open-Source Ab Initio Electronic Structure Package
                               Psi4 1.3.2 release

                         Git: Rev {HEAD} ecbda83 


    R. M. Parrish, L. A. Burns, D. G. A. Smith, A. C. Simmonett,
    A. E. DePrince III, E. G. Hohenstein, U. Bozkaya, A. Yu. Sokolov,
    R. Di Remigio, R. M. Richard, J. F. Gonthier, A. M. James,
    H. R. McAlexander, A. Kumar, M. Saitow, X. Wang, B. P. Pritchard,
    P. Verma, H. F. Schaefer III, K. Patkowski, R. A. King, E. F. Valeev,
    F. A. Evangelista, J. M. Turney, T. D. Crawford, and C. D. Sherrill,
    J. Chem. Theory Comput. 13(7) pp 3185--3197 (2017).
    (doi: 10.1021/acs.jctc.7b00174)


                         Additional Contributions by
    P. Kraus, H. Kruse, M. H. Lechner, M. C. Schieber, R. A. Shaw,
    A. Alenaizan, R. Galvelis, Z. L. Glick, S. Lehtola, and J. P. Misiewicz

    -----------------------------------------------------------------------


    Psi4 started on: Monday, 27 April 2020 04:45PM

    Process ID: 27925
    Host:       ds3
    PSIDATADIR: /theoryfs2/ds/metcalf/miniconda2/envs/tf2gpu/share/psi4
    Memory:     500.0 MiB
    Threads:    1
    
  ==> Input File <==

--------------------------------------------------------------------------
import numpy as np
set {scf_type pk
basis cc-pvdz
d_convergence 10
gdma_switch   0
gdma_limit    0
gdma_origin   [ 0.0,  0.0,  0.0 ]
}
molecule test {
    units Angstrom
    0 1
    --
    0 1
    C                2.079469902139482    -2.206157420296214    -0.586383336832946
    C                3.166469902139482    -1.131157420296214    -0.662383336832946
    H                1.102469902139482    -1.759157420296214    -0.760383336832946
    H                2.258469902139483    -2.961157420296213    -1.349383336832946
    H                2.094469902139482    -2.681157420296214     0.392616663167054
    H                4.129469902139482    -1.606157420296214    -0.484383336832946
    H                2.981771802139483    -0.386617420296214     0.125996663167054
    H                3.175895202139483    -0.667867420296214    -1.660013336832946
    C               -0.712530097860518    -0.836157420296214     2.193616663167054
    C               -1.362530097860517    -0.498157420296214    -0.196383336832946
    C               -0.792530097860518     0.006842579703786     0.967616663167054
    C               -1.455530097860518     0.301842579703786    -1.330383336832946
    C               -0.977530097860518     1.603842579703786    -1.302383336832946
    C               -0.316530097860518     1.312842579703786     0.988616663167054
    C               -0.399530097860518     2.102842579703786    -0.143383336832946
    H               -1.729530097860517    -1.514157420296214    -0.225383336832946
    H               -1.857530097860518    -0.107157420296214    -2.243383336832947
    H                0.215469902139482    -0.619157420296214     2.725616663167054
    H               -0.667530097860518    -1.880157420296214     1.880616663167054
    H               -1.041530097860518     2.223842579703786    -2.187383336832946
    H                0.126469902139482     1.715842579703786     1.886616663167054
    H               -0.041530097860518     3.111842579703787    -0.117383336832946
    H               -1.569399097860517    -0.686607420296214     2.866976663167054

}
e, wfn = energy('scf', return_wfn=True)
gdma(wfn)
dmavals = variable('DMA DISTRIBUTED MULTIPOLES')
charges = np.array(dmavals)
print(charges)
np.save('SSI-052LEU-062PHE-1-dimer.npy', np.array(charges))--------------------------------------------------------------------------

*** tstart() called on ds3
*** at Mon Apr 27 16:45:08 2020

   => Loading Basis Set <=

    Name: CC-PVDZ
    Role: ORBITAL
    Keyword: BASIS
    atoms 1-2, 9-15  entry C          line   138 file /theoryfs2/ds/metcalf/miniconda2/envs/tf2gpu/share/psi4/basis/cc-pvdz.gbs 
    atoms 3-8, 16-23 entry H          line    22 file /theoryfs2/ds/metcalf/miniconda2/envs/tf2gpu/share/psi4/basis/cc-pvdz.gbs 


         ---------------------------------------------------------
                                   SCF
               by Justin Turney, Rob Parrish, Andy Simmonett
                          and Daniel G. A. Smith
                              RHF Reference
                        1 Threads,    500 MiB Core
         ---------------------------------------------------------

  ==> Geometry <==

    Molecular point group: c1
    Full point group: C1

    Geometry (in Angstrom), charge = 0, multiplicity = 1:

       Center              X                  Y                   Z               Mass       
    ------------   -----------------  -----------------  -----------------  -----------------
         C            2.079469902139    -2.206157420296    -0.586383336833    12.000000000000
         C            3.166469902139    -1.131157420296    -0.662383336833    12.000000000000
         H            1.102469902139    -1.759157420296    -0.760383336833     1.007825032230
         H            2.258469902139    -2.961157420296    -1.349383336833     1.007825032230
         H            2.094469902139    -2.681157420296     0.392616663167     1.007825032230
         H            4.129469902139    -1.606157420296    -0.484383336833     1.007825032230
         H            2.981771802139    -0.386617420296     0.125996663167     1.007825032230
         H            3.175895202139    -0.667867420296    -1.660013336833     1.007825032230
         C           -0.712530097861    -0.836157420296     2.193616663167    12.000000000000
         C           -1.362530097861    -0.498157420296    -0.196383336833    12.000000000000
         C           -0.792530097861     0.006842579704     0.967616663167    12.000000000000
         C           -1.455530097861     0.301842579704    -1.330383336833    12.000000000000
         C           -0.977530097861     1.603842579704    -1.302383336833    12.000000000000
         C           -0.316530097861     1.312842579704     0.988616663167    12.000000000000
         C           -0.399530097861     2.102842579704    -0.143383336833    12.000000000000
         H           -1.729530097861    -1.514157420296    -0.225383336833     1.007825032230
         H           -1.857530097861    -0.107157420296    -2.243383336833     1.007825032230
         H            0.215469902139    -0.619157420296     2.725616663167     1.007825032230
         H           -0.667530097861    -1.880157420296     1.880616663167     1.007825032230
         H           -1.041530097861     2.223842579704    -2.187383336833     1.007825032230
         H            0.126469902139     1.715842579704     1.886616663167     1.007825032230
         H           -0.041530097861     3.111842579704    -0.117383336833     1.007825032230
         H           -1.569399097861    -0.686607420296     2.866976663167     1.007825032230

  Running in c1 symmetry.

  Rotational constants: A =      0.05739  B =      0.03211  C =      0.02763 [cm^-1]
  Rotational constants: A =   1720.65076  B =    962.67898  C =    828.38197 [MHz]
  Nuclear repulsion =  416.853163571357072

  Charge       = 0
  Multiplicity = 1
  Electrons    = 68
  Nalpha       = 34
  Nbeta        = 34

  ==> Algorithm <==

  SCF Algorithm Type is PK.
  DIIS enabled.
  MOM disabled.
  Fractional occupation disabled.
  Guess Type is SAD.
  Energy threshold   = 1.00e-06
  Density threshold  = 1.00e-10
  Integral threshold = 0.00e+00

  ==> Primary Basis <==

  Basis Set: CC-PVDZ
    Blend: CC-PVDZ
    Number of shells: 96
    Number of basis function: 196
    Number of Cartesian functions: 205
    Spherical Harmonics?: true
    Max angular momentum: 2

  ==> Pre-Iterations <==

   -------------------------------------------------------
    Irrep   Nso     Nmo     Nalpha   Nbeta   Ndocc  Nsocc
   -------------------------------------------------------
     A        196     196       0       0       0       0
   -------------------------------------------------------
    Total     196     196      34      34      34       0
   -------------------------------------------------------

  ==> Integral Setup <==

  Using integral reordering PK algorithm.
  Sizing the integral batches needed.
  Building batch lookup table.
   Calculation information:
      Number of atoms:                  23
      Number of AO shells:              96
      Number of primitives:            268
      Number of atomic orbitals:       205
      Number of basis functions:       196

      Integral cutoff                 1.00e-12
      Number of threads:                 1

	Batch   1 pq = [       0,    9405] index = [             0,44231715] size =     44231715
	Batch   2 pq = [    9405,   13301] index = [      44231715,88464951] size =     44233236
	Batch   3 pq = [   13301,   16290] index = [      88464951,132690195] size =     44225244
	Batch   4 pq = [   16290,   18810] index = [     132690195,176917455] size =     44227260
	Batch   5 pq = [   18810,   19306] index = [     176917455,186370471] size =      9453016
  Task number: 17
  Buffer size: 11059200
  Buffer per thread: 2
  We computed 10402176 shell quartets total.
  Whereas there are 10841496 unique shell quartets.

  ==> DiskJK: Disk-Based J/K Matrices <==

    J tasked:                  Yes
    K tasked:                  Yes
    wK tasked:                  No
    Memory [MiB]:              375
    Schwarz Cutoff:          1E-12

    OpenMP threads:              1

  Minimum eigenvalue in the overlap matrix is 3.0527785001E-04.
  Using Symmetric Orthogonalization.

  SCF Guess: Superposition of Atomic Densities via on-the-fly atomic UHF.

  ==> Iterations <==

                        Total Energy        Delta E     RMS |[F,P]|

   @RHF iter SAD:  -347.94568503832227   -3.47946e+02   0.00000e+00 
   @RHF iter   1:  -348.76482960717590   -8.19145e-01   2.92044e-03 DIIS
   @RHF iter   2:  -348.95899350601837   -1.94164e-01   1.22542e-03 DIIS
   @RHF iter   3:  -348.99023485425460   -3.12413e-02   2.62336e-04 DIIS
   @RHF iter   4:  -348.99273252917015   -2.49767e-03   5.93074e-05 DIIS
   @RHF iter   5:  -348.99282087245081   -8.83433e-05   1.94542e-05 DIIS
   @RHF iter   6:  -348.99283004844534   -9.17599e-06   5.09432e-06 DIIS
   @RHF iter   7:  -348.99283078353380   -7.35088e-07   1.21184e-06 DIIS
   @RHF iter   8:  -348.99283082933113   -4.57973e-08   2.77310e-07 DIIS
   @RHF iter   9:  -348.99283083294398   -3.61285e-09   1.04111e-07 DIIS
   @RHF iter  10:  -348.99283083345603   -5.12046e-10   4.06903e-08 DIIS
   @RHF iter  11:  -348.99283083359126   -1.35230e-10   1.61628e-08 DIIS
   @RHF iter  12:  -348.99283083361223   -2.09752e-11   8.53241e-09 DIIS
   @RHF iter  13:  -348.99283083362133   -9.09495e-12   3.61748e-09 DIIS
   @RHF iter  14:  -348.99283083362229   -9.66338e-13   1.09839e-09 DIIS
   @RHF iter  15:  -348.99283083362172    5.68434e-13   3.47971e-10 DIIS
   @RHF iter  16:  -348.99283083362099    7.38964e-13   9.09752e-11 DIIS
  Energy and wave function converged.


  ==> Post-Iterations <==

    Orbital Energies [Eh]
    ---------------------

    Doubly Occupied:                                                      

       1A    -11.238495     2A    -11.234934     3A    -11.233280  
       4A    -11.230274     5A    -11.229894     6A    -11.228703  
       7A    -11.227659     8A    -11.212509     9A    -11.208099  
      10A     -1.156449    11A     -1.047785    12A     -1.014829  
      13A     -1.011222    14A     -0.931586    15A     -0.829450  
      16A     -0.826536    17A     -0.796442    18A     -0.692451  
      19A     -0.633947    20A     -0.631300    21A     -0.593663  
      22A     -0.592316    23A     -0.585289    24A     -0.578323  
      25A     -0.563239    26A     -0.533945    27A     -0.492154  
      28A     -0.489190    29A     -0.485114    30A     -0.482796  
      31A     -0.480798    32A     -0.476549    33A     -0.333949  
      34A     -0.322167  

    Virtual:                                                              

      35A      0.135934    36A      0.140429    37A      0.171208  
      38A      0.195669    39A      0.209106    40A      0.212000  
      41A      0.242311    42A      0.245277    43A      0.255921  
      44A      0.262756    45A      0.266175    46A      0.271602  
      47A      0.285651    48A      0.292612    49A      0.302227  
      50A      0.314721    51A      0.369823    52A      0.377948  
      53A      0.399654    54A      0.453637    55A      0.462683  
      56A      0.482553    57A      0.493424    58A      0.561982  
      59A      0.588411    60A      0.593693    61A      0.600006  
      62A      0.611627    63A      0.643189    64A      0.680291  
      65A      0.683271    66A      0.686644    67A      0.698786  
      68A      0.715200    69A      0.729204    70A      0.738244  
      71A      0.746971    72A      0.750303    73A      0.760893  
      74A      0.769588    75A      0.782133    76A      0.815323  
      77A      0.843393    78A      0.848789    79A      0.860040  
      80A      0.863407    81A      0.873974    82A      0.877256  
      83A      0.895687    84A      0.898242    85A      0.899752  
      86A      0.904793    87A      0.919533    88A      0.926217  
      89A      0.935947    90A      0.945483    91A      0.960611  
      92A      0.976323    93A      0.992322    94A      1.010250  
      95A      1.044172    96A      1.063138    97A      1.128821  
      98A      1.130826    99A      1.133111   100A      1.149560  
     101A      1.154171   102A      1.157293   103A      1.190389  
     104A      1.237258   105A      1.239350   106A      1.253349  
     107A      1.260340   108A      1.292593   109A      1.305378  
     110A      1.313243   111A      1.325807   112A      1.342671  
     113A      1.411952   114A      1.485083   115A      1.488704  
     116A      1.517469   117A      1.520924   118A      1.561276  
     119A      1.581482   120A      1.603262   121A      1.672034  
     122A      1.684761   123A      1.698914   124A      1.702562  
     125A      1.744265   126A      1.750003   127A      1.761908  
     128A      1.793768   129A      1.814502   130A      1.852228  
     131A      1.860788   132A      1.866236   133A      1.886489  
     134A      1.898994   135A      1.910807   136A      1.919350  
     137A      1.926916   138A      1.930000   139A      1.945751  
     140A      1.950054   141A      1.952081   142A      1.958969  
     143A      1.965440   144A      1.973386   145A      1.979701  
     146A      1.989002   147A      2.001055   148A      2.014098  
     149A      2.043028   150A      2.070877   151A      2.080226  
     152A      2.106835   153A      2.119529   154A      2.130999  
     155A      2.149313   156A      2.158798   157A      2.169267  
     158A      2.180768   159A      2.186182   160A      2.260173  
     161A      2.282576   162A      2.289260   163A      2.296695  
     164A      2.305067   165A      2.314503   166A      2.325483  
     167A      2.329440   168A      2.463076   169A      2.475515  
     170A      2.479662   171A      2.484296   172A      2.501806  
     173A      2.547940   174A      2.574946   175A      2.585575  
     176A      2.629666   177A      2.745067   178A      2.761281  
     179A      2.775769   180A      2.776278   181A      2.789500  
     182A      2.813316   183A      2.821487   184A      2.844790  
     185A      2.853121   186A      2.861266   187A      2.882759  
     188A      2.956371   189A      2.976136   190A      2.996858  
     191A      3.026319   192A      3.048323   193A      3.162233  
     194A      3.214345   195A      3.313401   196A      3.993116  

    Final Occupation by Irrep:
              A 
    DOCC [    34 ]

  @RHF Final Energy:  -348.99283083362099

   => Energetics <=

    Nuclear Repulsion Energy =            416.8531635713570722
    One-Electron Energy =               -1296.4413231273179008
    Two-Electron Energy =                 530.5953287223399002
    Total Energy =                       -348.9928308336209284

Computation Completed


Properties will be evaluated at   0.000000,   0.000000,   0.000000 [a0]

Properties computed using the SCF density matrix

  Nuclear Dipole Moment: [e a0]
     X:     8.6036      Y:    -7.3290      Z:     0.7975

  Electronic Dipole Moment: [e a0]
     X:    -8.6550      Y:     7.3093      Z:    -0.6978

  Dipole Moment: [e a0]
     X:    -0.0515      Y:    -0.0197      Z:     0.0997     Total:     0.1139

  Dipole Moment: [D]
     X:    -0.1308      Y:    -0.0500      Z:     0.2535     Total:     0.2896


*** tstop() called on ds3 at Mon Apr 27 16:47:15 2020
Module time:
	user time   =      98.28 seconds =       1.64 minutes
	system time =      32.70 seconds =       0.55 minutes
	total time  =        127 seconds =       2.12 minutes
Total time:
	user time   =      98.28 seconds =       1.64 minutes
	system time =      32.70 seconds =       0.55 minutes
	total time  =        127 seconds =       2.12 minutes
                                     G D M A

                                 by Anthony Stone

                           version 2.2.06, 22 June 2011

               Distributed Multipoles from Gaussian wavefunctions


Starting at 16:47:15 on 27 Apr 2020 


Using SCF density matrix from file ./SSI/SSI-052LEU-062PHE-1-dimer.test.27925.fchk


                         Distributed Multipole Analysis

Standard DMA

Positions and radii in angstrom
Multipole moments in atomic units, ea_0^k for rank k

C          x =  2.079470  y = -2.206157  z = -0.586383 angstrom
           Maximum rank =  0   Radius =  0.650 angstrom
                   Q00  =  -0.244398

C          x =  3.166470  y = -1.131157  z = -0.662383 angstrom
           Maximum rank =  0   Radius =  0.650 angstrom
                   Q00  =  -0.231907

H          x =  1.102470  y = -1.759157  z = -0.760383 angstrom
           Maximum rank =  0   Radius =  0.325 angstrom
                   Q00  =   0.096422

H          x =  2.258470  y = -2.961157  z = -1.349383 angstrom
           Maximum rank =  0   Radius =  0.325 angstrom
                   Q00  =   0.072834

H          x =  2.094470  y = -2.681157  z =  0.392617 angstrom
           Maximum rank =  0   Radius =  0.325 angstrom
                   Q00  =   0.073361

H          x =  4.129470  y = -1.606157  z = -0.484383 angstrom
           Maximum rank =  0   Radius =  0.325 angstrom
                   Q00  =   0.072637

H          x =  2.981772  y = -0.386617  z =  0.125997 angstrom
           Maximum rank =  0   Radius =  0.325 angstrom
                   Q00  =   0.079388

H          x =  3.175895  y = -0.667867  z = -1.660013 angstrom
           Maximum rank =  0   Radius =  0.325 angstrom
                   Q00  =   0.080444

C          x = -0.712530  y = -0.836157  z =  2.193617 angstrom
           Maximum rank =  0   Radius =  0.650 angstrom
                   Q00  =  -0.194109

C          x = -1.362530  y = -0.498157  z = -0.196383 angstrom
           Maximum rank =  0   Radius =  0.650 angstrom
                   Q00  =  -0.087034

C          x = -0.792530  y =  0.006843  z =  0.967617 angstrom
           Maximum rank =  0   Radius =  0.650 angstrom
                   Q00  =  -0.095109

C          x = -1.455530  y =  0.301843  z = -1.330383 angstrom
           Maximum rank =  0   Radius =  0.650 angstrom
                   Q00  =  -0.085084

C          x = -0.977530  y =  1.603843  z = -1.302383 angstrom
           Maximum rank =  0   Radius =  0.650 angstrom
                   Q00  =  -0.082153

C          x = -0.316530  y =  1.312843  z =  0.988617 angstrom
           Maximum rank =  0   Radius =  0.650 angstrom
                   Q00  =  -0.018801

C          x = -0.399530  y =  2.102843  z = -0.143383 angstrom
           Maximum rank =  0   Radius =  0.650 angstrom
                   Q00  =  -0.036251

H          x = -1.729530  y = -1.514157  z = -0.225383 angstrom
           Maximum rank =  0   Radius =  0.325 angstrom
                   Q00  =   0.057759

H          x = -1.857530  y = -0.107157  z = -2.243383 angstrom
           Maximum rank =  0   Radius =  0.325 angstrom
                   Q00  =   0.064828

H          x =  0.215470  y = -0.619157  z =  2.725617 angstrom
           Maximum rank =  0   Radius =  0.325 angstrom
                   Q00  =   0.096969

H          x = -0.667530  y = -1.880157  z =  1.880617 angstrom
           Maximum rank =  0   Radius =  0.325 angstrom
                   Q00  =   0.096721

H          x = -1.041530  y =  2.223843  z = -2.187383 angstrom
           Maximum rank =  0   Radius =  0.325 angstrom
                   Q00  =   0.060637

H          x =  0.126470  y =  1.715843  z =  1.886617 angstrom
           Maximum rank =  0   Radius =  0.325 angstrom
                   Q00  =   0.054966

H          x = -0.041530  y =  3.111843  z = -0.117383 angstrom
           Maximum rank =  0   Radius =  0.325 angstrom
                   Q00  =   0.063301

H          x = -1.569399  y = -0.686607  z =  2.866977 angstrom
           Maximum rank =  0   Radius =  0.325 angstrom
                   Q00  =   0.104579

Total multipoles referred to origin at
           x =   0.000000,  y =    0.000000,  z =    0.000000 angstrom
                   Q00  =  -0.000000

Finished at 16:47:15 on 27 Apr 2020 

  DMA results are available in the Python driver through the
	  variable('DMA DISTRIBUTED MULTIPOLES')
  and
	  variable('DMA TOTAL MULTIPOLES')
  commands.


    Psi4 stopped on: Monday, 27 April 2020 04:47PM
    Psi4 wall time for execution: 0:02:06.93

*** Psi4 exiting successfully. Buy a developer a beer!
