
    -----------------------------------------------------------------------
          Psi4: An Open-Source Ab Initio Electronic Structure Package
                               Psi4 1.3.2 release

                         Git: Rev {HEAD} ecbda83 


    R. M. Parrish, L. A. Burns, D. G. A. Smith, A. C. Simmonett,
    A. E. DePrince III, E. G. Hohenstein, U. Bozkaya, A. Yu. Sokolov,
    R. Di Remigio, R. M. Richard, J. F. Gonthier, A. M. James,
    H. R. McAlexander, A. Kumar, M. Saitow, X. Wang, B. P. Pritchard,
    P. Verma, H. F. Schaefer III, K. Patkowski, R. A. King, E. F. Valeev,
    F. A. Evangelista, J. M. Turney, T. D. Crawford, and C. D. Sherrill,
    J. Chem. Theory Comput. 13(7) pp 3185--3197 (2017).
    (doi: 10.1021/acs.jctc.7b00174)


                         Additional Contributions by
    P. Kraus, H. Kruse, M. H. Lechner, M. C. Schieber, R. A. Shaw,
    A. Alenaizan, R. Galvelis, Z. L. Glick, S. Lehtola, and J. P. Misiewicz

    -----------------------------------------------------------------------


    Psi4 started on: Monday, 27 April 2020 07:45PM

    Process ID: 9556
    Host:       ds3
    PSIDATADIR: /theoryfs2/ds/metcalf/miniconda2/envs/tf2gpu/share/psi4
    Memory:     500.0 MiB
    Threads:    1
    
  ==> Input File <==

--------------------------------------------------------------------------
import numpy as np
set {scf_type pk
basis cc-pvdz
d_convergence 10
gdma_switch   0
gdma_limit    0
gdma_origin   [ 0.0,  0.0,  0.0 ]
}
molecule test {
    units Angstrom
    0 1
    --
    0 1
    C               -2.154093855449892    -1.189251228023108     1.215553519610024
    C               -1.036093855449892     0.765748771976893     0.005553519610024
    C               -1.504093855449892    -0.555251228023107    -0.016446480389976
    C               -0.384093855449892     1.319748771976893    -1.096446480389976
    C               -0.276093855449892     0.589748771976893    -2.283446480389976
    C               -1.418093855449892    -1.285251228023107    -1.209446480389975
    C               -0.737093855449892    -0.743251228023108    -2.339446480389975
    H               -1.131093855449892     1.350748771976892     0.909553519610024
    H               -0.020093855449892     2.332748771976892    -1.049446480389975
    H               -1.437093855449892    -1.102251228023107     2.033553519610024
    H               -2.325093855449892    -2.254251228023108     1.048553519610025
    H                0.209906144550108     1.028748771976893    -3.143446480389976
    H               -1.805093855449892    -2.294251228023108    -1.256446480389976
    H               -0.631093855449892    -1.322251228023108    -3.247446480389976
    H               -3.092557855449892    -0.708957228023107     1.529563519610024
    C                1.891906144550108     0.279748771976893     2.069553519610024
    C                2.539906144550109     1.621748771976893     1.756553519610025
    C                2.382906144550109    -0.805251228023107     1.103553519610025
    H                2.118906144550108    -0.005251228023107     3.098553519610024
    H                0.809906144550108     0.365748771976893     1.979553519610024
    H                2.458906144550108     1.780748771976893     0.676553519610024
    H                2.015906144550109    -0.591251228023107     0.098553519610024
    H                3.472906144550108    -0.820251228023107     1.091553519610025
    H                3.600756144550108     1.584934771976893     2.045053519610024
    H                2.003796144550108     2.465935771976893     2.214743519610024
    H                2.025646144550108    -1.792892118023107     1.430553519610025

}
e, wfn = energy('scf', return_wfn=True)
gdma(wfn)
dmavals = variable('DMA DISTRIBUTED MULTIPOLES')
charges = np.array(dmavals)
print(charges)
np.save('SSI-106PHE-178LYS-1-dimer.npy', np.array(charges))--------------------------------------------------------------------------

*** tstart() called on ds3
*** at Mon Apr 27 19:45:57 2020

   => Loading Basis Set <=

    Name: CC-PVDZ
    Role: ORBITAL
    Keyword: BASIS
    atoms 1-7, 16-18  entry C          line   138 file /theoryfs2/ds/metcalf/miniconda2/envs/tf2gpu/share/psi4/basis/cc-pvdz.gbs 
    atoms 8-15, 19-26 entry H          line    22 file /theoryfs2/ds/metcalf/miniconda2/envs/tf2gpu/share/psi4/basis/cc-pvdz.gbs 


         ---------------------------------------------------------
                                   SCF
               by Justin Turney, Rob Parrish, Andy Simmonett
                          and Daniel G. A. Smith
                              RHF Reference
                        1 Threads,    500 MiB Core
         ---------------------------------------------------------

  ==> Geometry <==

    Molecular point group: c1
    Full point group: C1

    Geometry (in Angstrom), charge = 0, multiplicity = 1:

       Center              X                  Y                   Z               Mass       
    ------------   -----------------  -----------------  -----------------  -----------------
         C           -2.154093855450    -1.189251228023     1.215553519610    12.000000000000
         C           -1.036093855450     0.765748771977     0.005553519610    12.000000000000
         C           -1.504093855450    -0.555251228023    -0.016446480390    12.000000000000
         C           -0.384093855450     1.319748771977    -1.096446480390    12.000000000000
         C           -0.276093855450     0.589748771977    -2.283446480390    12.000000000000
         C           -1.418093855450    -1.285251228023    -1.209446480390    12.000000000000
         C           -0.737093855450    -0.743251228023    -2.339446480390    12.000000000000
         H           -1.131093855450     1.350748771977     0.909553519610     1.007825032230
         H           -0.020093855450     2.332748771977    -1.049446480390     1.007825032230
         H           -1.437093855450    -1.102251228023     2.033553519610     1.007825032230
         H           -2.325093855450    -2.254251228023     1.048553519610     1.007825032230
         H            0.209906144550     1.028748771977    -3.143446480390     1.007825032230
         H           -1.805093855450    -2.294251228023    -1.256446480390     1.007825032230
         H           -0.631093855450    -1.322251228023    -3.247446480390     1.007825032230
         H           -3.092557855450    -0.708957228023     1.529563519610     1.007825032230
         C            1.891906144550     0.279748771977     2.069553519610    12.000000000000
         C            2.539906144550     1.621748771977     1.756553519610    12.000000000000
         C            2.382906144550    -0.805251228023     1.103553519610    12.000000000000
         H            2.118906144550    -0.005251228023     3.098553519610     1.007825032230
         H            0.809906144550     0.365748771977     1.979553519610     1.007825032230
         H            2.458906144550     1.780748771977     0.676553519610     1.007825032230
         H            2.015906144550    -0.591251228023     0.098553519610     1.007825032230
         H            3.472906144550    -0.820251228023     1.091553519610     1.007825032230
         H            3.600756144550     1.584934771977     2.045053519610     1.007825032230
         H            2.003796144550     2.465935771977     2.214743519610     1.007825032230
         H            2.025646144550    -1.792892118023     1.430553519610     1.007825032230

  Running in c1 symmetry.

  Rotational constants: A =      0.05237  B =      0.02519  C =      0.02160 [cm^-1]
  Rotational constants: A =   1570.14528  B =    755.07551  C =    647.44857 [MHz]
  Nuclear repulsion =  500.383262913849308

  Charge       = 0
  Multiplicity = 1
  Electrons    = 76
  Nalpha       = 38
  Nbeta        = 38

  ==> Algorithm <==

  SCF Algorithm Type is PK.
  DIIS enabled.
  MOM disabled.
  Fractional occupation disabled.
  Guess Type is SAD.
  Energy threshold   = 1.00e-06
  Density threshold  = 1.00e-10
  Integral threshold = 0.00e+00

  ==> Primary Basis <==

  Basis Set: CC-PVDZ
    Blend: CC-PVDZ
    Number of shells: 108
    Number of basis function: 220
    Number of Cartesian functions: 230
    Spherical Harmonics?: true
    Max angular momentum: 2

  ==> Pre-Iterations <==

   -------------------------------------------------------
    Irrep   Nso     Nmo     Nalpha   Nbeta   Ndocc  Nsocc
   -------------------------------------------------------
     A        220     220       0       0       0       0
   -------------------------------------------------------
    Total     220     220      38      38      38       0
   -------------------------------------------------------

  ==> Integral Setup <==

  Using integral reordering PK algorithm.
  Sizing the integral batches needed.
  Building batch lookup table.
   Calculation information:
      Number of atoms:                  26
      Number of AO shells:             108
      Number of primitives:            300
      Number of atomic orbitals:       230
      Number of basis functions:       220

      Integral cutoff                 1.00e-12
      Number of threads:                 1

	Batch   1 pq = [       0,    9405] index = [             0,44231715] size =     44231715
	Batch   2 pq = [    9405,   13301] index = [      44231715,88464951] size =     44233236
	Batch   3 pq = [   13301,   16290] index = [      88464951,132690195] size =     44225244
	Batch   4 pq = [   16290,   18810] index = [     132690195,176917455] size =     44227260
	Batch   5 pq = [   18810,   21030] index = [     176917455,221140965] size =     44223510
	Batch   6 pq = [   21030,   23037] index = [     221140965,265363203] size =     44222238
	Batch   7 pq = [   23037,   24310] index = [     265363203,295500205] size =     30137002
  Task number: 27
  Buffer size: 11059200
  Buffer per thread: 2
  We computed 17468405 shell quartets total.
  Whereas there are 17325441 unique shell quartets.
     0.83 percent of shell quartets recomputed by reordering.

  ==> DiskJK: Disk-Based J/K Matrices <==

    J tasked:                  Yes
    K tasked:                  Yes
    wK tasked:                  No
    Memory [MiB]:              375
    Schwarz Cutoff:          1E-12

    OpenMP threads:              1

  Minimum eigenvalue in the overlap matrix is 3.7415034231E-04.
  Using Symmetric Orthogonalization.

  SCF Guess: Superposition of Atomic Densities via on-the-fly atomic UHF.

  ==> Iterations <==

                        Total Energy        Delta E     RMS |[F,P]|

   @RHF iter SAD:  -386.71616900374704   -3.86716e+02   0.00000e+00 
   @RHF iter   1:  -387.77276907409907   -1.05660e+00   2.71757e-03 DIIS
   @RHF iter   2:  -387.98696861663456   -2.14200e-01   1.14905e-03 DIIS
   @RHF iter   3:  -388.02174499159685   -3.47764e-02   2.52061e-04 DIIS
   @RHF iter   4:  -388.02464128223033   -2.89629e-03   5.67255e-05 DIIS
   @RHF iter   5:  -388.02474395816023   -1.02676e-04   1.80945e-05 DIIS
   @RHF iter   6:  -388.02475448782297   -1.05297e-05   5.21816e-06 DIIS
   @RHF iter   7:  -388.02475553443855   -1.04662e-06   1.31873e-06 DIIS
   @RHF iter   8:  -388.02475565758397   -1.23145e-07   4.99911e-07 DIIS
   @RHF iter   9:  -388.02475569264425   -3.50603e-08   2.56304e-07 DIIS
   @RHF iter  10:  -388.02475570178433   -9.14008e-09   1.23028e-07 DIIS
   @RHF iter  11:  -388.02475570385218   -2.06785e-09   3.61956e-08 DIIS
   @RHF iter  12:  -388.02475570401464   -1.62458e-10   1.42625e-08 DIIS
   @RHF iter  13:  -388.02475570402709   -1.24487e-11   4.62702e-09 DIIS
   @RHF iter  14:  -388.02475570402788   -7.95808e-13   1.61909e-09 DIIS
   @RHF iter  15:  -388.02475570403425   -6.36646e-12   8.10114e-10 DIIS
   @RHF iter  16:  -388.02475570402999    4.26326e-12   3.62038e-10 DIIS
   @RHF iter  17:  -388.02475570402970    2.84217e-13   1.36770e-10 DIIS
   @RHF iter  18:  -388.02475570403203   -2.33058e-12   5.02144e-11 DIIS
  Energy and wave function converged.


  ==> Post-Iterations <==

    Orbital Energies [Eh]
    ---------------------

    Doubly Occupied:                                                      

       1A    -11.246591     2A    -11.243829     3A    -11.238798  
       4A    -11.237946     5A    -11.237037     6A    -11.234487  
       7A    -11.233277     8A    -11.213333     9A    -11.212634  
      10A    -11.208211    11A     -1.146399    12A     -1.048655  
      13A     -1.039893    14A     -1.007743    15A     -0.930439  
      16A     -0.915491    17A     -0.825339    18A     -0.795194  
      19A     -0.790944    20A     -0.689492    21A     -0.634710  
      22A     -0.626544    23A     -0.623083    24A     -0.590059  
      25A     -0.582340    26A     -0.574280    27A     -0.560848  
      28A     -0.538299    29A     -0.536946    30A     -0.526618  
      31A     -0.488732    32A     -0.484123    33A     -0.479900  
      34A     -0.465291    35A     -0.463533    36A     -0.460791  
      37A     -0.329992    38A     -0.322397  

    Virtual:                                                              

      39A      0.128269    40A      0.138151    41A      0.171281  
      42A      0.191993    43A      0.199703    44A      0.214800  
      45A      0.228851    46A      0.236607    47A      0.250742  
      48A      0.254174    49A      0.264862    50A      0.266602  
      51A      0.276637    52A      0.280741    53A      0.293710  
      54A      0.303359    55A      0.317316    56A      0.357385  
      57A      0.360869    58A      0.376439    59A      0.393486  
      60A      0.426112    61A      0.445218    62A      0.456557  
      63A      0.467021    64A      0.495119    65A      0.559926  
      66A      0.580402    67A      0.591052    68A      0.601139  
      69A      0.616342    70A      0.623817    71A      0.631359  
      72A      0.649885    73A      0.663048    74A      0.700526  
      75A      0.703457    76A      0.733000    77A      0.735629  
      78A      0.740325    79A      0.742738    80A      0.752194  
      81A      0.763633    82A      0.783644    83A      0.794328  
      84A      0.814973    85A      0.828578    86A      0.845722  
      87A      0.853248    88A      0.855398    89A      0.859634  
      90A      0.865689    91A      0.877871    92A      0.885866  
      93A      0.888590    94A      0.895014    95A      0.909127  
      96A      0.912952    97A      0.922329    98A      0.926578  
      99A      0.931540   100A      0.938386   101A      0.952454  
     102A      0.963705   103A      0.981553   104A      0.992887  
     105A      1.002392   106A      1.008870   107A      1.041513  
     108A      1.086566   109A      1.099430   110A      1.121784  
     111A      1.129310   112A      1.136565   113A      1.152354  
     114A      1.176224   115A      1.186715   116A      1.214362  
     117A      1.231977   118A      1.243340   119A      1.249979  
     120A      1.265701   121A      1.287512   122A      1.304164  
     123A      1.322987   124A      1.331656   125A      1.383408  
     126A      1.418683   127A      1.473700   128A      1.489862  
     129A      1.503920   130A      1.519202   131A      1.553795  
     132A      1.561931   133A      1.597993   134A      1.634157  
     135A      1.668314   136A      1.682060   137A      1.687524  
     138A      1.703372   139A      1.721558   140A      1.732050  
     141A      1.746357   142A      1.758679   143A      1.793637  
     144A      1.815517   145A      1.845980   146A      1.855303  
     147A      1.864258   148A      1.873719   149A      1.877301  
     150A      1.888139   151A      1.900314   152A      1.914074  
     153A      1.919083   154A      1.922962   155A      1.927199  
     156A      1.937247   157A      1.950501   158A      1.958135  
     159A      1.965021   160A      1.966054   161A      1.978877  
     162A      1.986764   163A      1.990497   164A      2.010844  
     165A      2.016374   166A      2.026468   167A      2.031583  
     168A      2.039017   169A      2.054667   170A      2.069888  
     171A      2.112792   172A      2.120553   173A      2.138611  
     174A      2.153311   175A      2.158608   176A      2.163327  
     177A      2.174005   178A      2.186133   179A      2.229054  
     180A      2.261275   181A      2.276591   182A      2.278824  
     183A      2.299959   184A      2.307963   185A      2.310791  
     186A      2.315912   187A      2.346342   188A      2.364806  
     189A      2.436729   190A      2.459644   191A      2.494381  
     192A      2.510950   193A      2.520125   194A      2.543058  
     195A      2.578245   196A      2.609230   197A      2.625156  
     198A      2.648580   199A      2.720191   200A      2.742184  
     201A      2.758204   202A      2.764544   203A      2.771094  
     204A      2.784799   205A      2.799534   206A      2.804893  
     207A      2.833585   208A      2.837440   209A      2.851357  
     210A      2.922925   211A      2.947442   212A      2.955159  
     213A      2.980204   214A      2.982485   215A      3.004338  
     216A      3.091376   217A      3.128435   218A      3.169102  
     219A      3.270970   220A      3.900310  

    Final Occupation by Irrep:
              A 
    DOCC [    38 ]

  @RHF Final Energy:  -388.02475570403203

   => Energetics <=

    Nuclear Repulsion Energy =            500.3832629138493076
    One-Electron Energy =               -1515.2475989768047384
    Two-Electron Energy =                 626.8395803589233992
    Total Energy =                       -388.0247557040320316

Computation Completed


Properties will be evaluated at   0.000000,   0.000000,   0.000000 [a0]

Properties computed using the SCF density matrix

  Nuclear Dipole Moment: [e a0]
     X:     7.7571      Y:     0.0169      Z:     8.8680

  Electronic Dipole Moment: [e a0]
     X:    -7.8900      Y:    -0.0907      Z:    -8.8246

  Dipole Moment: [e a0]
     X:    -0.1329      Y:    -0.0738      Z:     0.0435     Total:     0.1581

  Dipole Moment: [D]
     X:    -0.3377      Y:    -0.1875      Z:     0.1105     Total:     0.4018


*** tstop() called on ds3 at Mon Apr 27 19:49:53 2020
Module time:
	user time   =     120.40 seconds =       2.01 minutes
	system time =      42.51 seconds =       0.71 minutes
	total time  =        236 seconds =       3.93 minutes
Total time:
	user time   =     120.40 seconds =       2.01 minutes
	system time =      42.51 seconds =       0.71 minutes
	total time  =        236 seconds =       3.93 minutes
                                     G D M A

                                 by Anthony Stone

                           version 2.2.06, 22 June 2011

               Distributed Multipoles from Gaussian wavefunctions


Starting at 19:49:53 on 27 Apr 2020 


Using SCF density matrix from file ./SSI/SSI-106PHE-178LYS-1-dimer.test.9556.fchk


                         Distributed Multipole Analysis

Standard DMA

Positions and radii in angstrom
Multipole moments in atomic units, ea_0^k for rank k

C          x = -2.154094  y = -1.189251  z =  1.215554 angstrom
           Maximum rank =  0   Radius =  0.650 angstrom
                   Q00  =  -0.208652

C          x = -1.036094  y =  0.765749  z =  0.005554 angstrom
           Maximum rank =  0   Radius =  0.650 angstrom
                   Q00  =  -0.017822

C          x = -1.504094  y = -0.555251  z = -0.016446 angstrom
           Maximum rank =  0   Radius =  0.650 angstrom
                   Q00  =  -0.105750

C          x = -0.384094  y =  1.319749  z = -1.096446 angstrom
           Maximum rank =  0   Radius =  0.650 angstrom
                   Q00  =  -0.072006

C          x = -0.276094  y =  0.589749  z = -2.283446 angstrom
           Maximum rank =  0   Radius =  0.650 angstrom
                   Q00  =  -0.065229

C          x = -1.418094  y = -1.285251  z = -1.209446 angstrom
           Maximum rank =  0   Radius =  0.650 angstrom
                   Q00  =  -0.089078

C          x = -0.737094  y = -0.743251  z = -2.339446 angstrom
           Maximum rank =  0   Radius =  0.650 angstrom
                   Q00  =  -0.077924

H          x = -1.131094  y =  1.350749  z =  0.909554 angstrom
           Maximum rank =  0   Radius =  0.325 angstrom
                   Q00  =   0.059827

H          x = -0.020094  y =  2.332749  z = -1.049446 angstrom
           Maximum rank =  0   Radius =  0.325 angstrom
                   Q00  =   0.068481

H          x = -1.437094  y = -1.102251  z =  2.033554 angstrom
           Maximum rank =  0   Radius =  0.325 angstrom
                   Q00  =   0.100838

H          x = -2.325094  y = -2.254251  z =  1.048554 angstrom
           Maximum rank =  0   Radius =  0.325 angstrom
                   Q00  =   0.101324

H          x =  0.209906  y =  1.028749  z = -3.143446 angstrom
           Maximum rank =  0   Radius =  0.325 angstrom
                   Q00  =   0.065459

H          x = -1.805094  y = -2.294251  z = -1.256446 angstrom
           Maximum rank =  0   Radius =  0.325 angstrom
                   Q00  =   0.065477

H          x = -0.631094  y = -1.322251  z = -3.247446 angstrom
           Maximum rank =  0   Radius =  0.325 angstrom
                   Q00  =   0.073354

H          x = -3.092558  y = -0.708957  z =  1.529564 angstrom
           Maximum rank =  0   Radius =  0.325 angstrom
                   Q00  =   0.104231

C          x =  1.891906  y =  0.279749  z =  2.069554 angstrom
           Maximum rank =  0   Radius =  0.650 angstrom
                   Q00  =  -0.092239

C          x =  2.539906  y =  1.621749  z =  1.756554 angstrom
           Maximum rank =  0   Radius =  0.650 angstrom
                   Q00  =  -0.231568

C          x =  2.382906  y = -0.805251  z =  1.103554 angstrom
           Maximum rank =  0   Radius =  0.650 angstrom
                   Q00  =  -0.238385

H          x =  2.118906  y = -0.005251  z =  3.098554 angstrom
           Maximum rank =  0   Radius =  0.325 angstrom
                   Q00  =   0.041564

H          x =  0.809906  y =  0.365749  z =  1.979554 angstrom
           Maximum rank =  0   Radius =  0.325 angstrom
                   Q00  =   0.048928

H          x =  2.458906  y =  1.780749  z =  0.676554 angstrom
           Maximum rank =  0   Radius =  0.325 angstrom
                   Q00  =   0.071171

H          x =  2.015906  y = -0.591251  z =  0.098554 angstrom
           Maximum rank =  0   Radius =  0.325 angstrom
                   Q00  =   0.092260

H          x =  3.472906  y = -0.820251  z =  1.091554 angstrom
           Maximum rank =  0   Radius =  0.325 angstrom
                   Q00  =   0.070600

H          x =  3.600756  y =  1.584935  z =  2.045054 angstrom
           Maximum rank =  0   Radius =  0.325 angstrom
                   Q00  =   0.077765

H          x =  2.003796  y =  2.465936  z =  2.214744 angstrom
           Maximum rank =  0   Radius =  0.325 angstrom
                   Q00  =   0.078427

H          x =  2.025646  y = -1.792892  z =  1.430554 angstrom
           Maximum rank =  0   Radius =  0.325 angstrom
                   Q00  =   0.078944

Total multipoles referred to origin at
           x =   0.000000,  y =    0.000000,  z =    0.000000 angstrom
                   Q00  =  -0.000000

Finished at 19:49:53 on 27 Apr 2020 

  DMA results are available in the Python driver through the
	  variable('DMA DISTRIBUTED MULTIPOLES')
  and
	  variable('DMA TOTAL MULTIPOLES')
  commands.


    Psi4 stopped on: Monday, 27 April 2020 07:49PM
    Psi4 wall time for execution: 0:03:56.41

*** Psi4 exiting successfully. Buy a developer a beer!
