
    -----------------------------------------------------------------------
          Psi4: An Open-Source Ab Initio Electronic Structure Package
                               Psi4 1.3.2 release

                         Git: Rev {HEAD} ecbda83 


    R. M. Parrish, L. A. Burns, D. G. A. Smith, A. C. Simmonett,
    A. E. DePrince III, E. G. Hohenstein, U. Bozkaya, A. Yu. Sokolov,
    R. Di Remigio, R. M. Richard, J. F. Gonthier, A. M. James,
    H. R. McAlexander, A. Kumar, M. Saitow, X. Wang, B. P. Pritchard,
    P. Verma, H. F. Schaefer III, K. Patkowski, R. A. King, E. F. Valeev,
    F. A. Evangelista, J. M. Turney, T. D. Crawford, and C. D. Sherrill,
    J. Chem. Theory Comput. 13(7) pp 3185--3197 (2017).
    (doi: 10.1021/acs.jctc.7b00174)


                         Additional Contributions by
    P. Kraus, H. Kruse, M. H. Lechner, M. C. Schieber, R. A. Shaw,
    A. Alenaizan, R. Galvelis, Z. L. Glick, S. Lehtola, and J. P. Misiewicz

    -----------------------------------------------------------------------


    Psi4 started on: Monday, 27 April 2020 07:38AM

    Process ID: 28818
    Host:       ds3
    PSIDATADIR: /theoryfs2/ds/metcalf/miniconda2/envs/tf2gpu/share/psi4
    Memory:     500.0 MiB
    Threads:    1
    
  ==> Input File <==

--------------------------------------------------------------------------
import numpy as np
set {scf_type pk
basis cc-pvdz
d_convergence 10
gdma_switch   0
gdma_limit    0
gdma_origin   [ 0.0,  0.0,  0.0 ]
}
molecule test {
    units Angstrom
    0 1
    --
    0 1
    C               -0.962948300786529     1.296364899880190     0.708697988354978
    C               -1.816948300786529     1.776364899880190     1.882697988354978
    H                0.090051699213471     1.265364899880190     0.995697988354978
    H               -1.284948300786529     0.293364899880190     0.423697988354978
    H               -1.087948300786529     1.941364899880190    -0.161302011645022
    H               -2.833948300786529     1.940364899880190     1.527697988354977
    H               -1.417468300786529     2.718054899880190     2.287207988354978
    H               -1.840748300786529     1.015494899880190     2.676747988354977
    C                0.820051699213471    -1.203635100119810    -0.914302011645022
    C                1.964051699213471    -1.867635100119810    -1.673302011645022
    H                1.217051699213471    -0.473635100119810    -0.210302011645022
    H                0.170051699213471    -0.678635100119810    -1.615302011645023
    H                0.231051699213471    -1.951635100119810    -0.380302011645022
    H                2.577051699213471    -1.091635100119810    -2.123302011645023
    H                2.569651699213471    -2.486873100119810    -0.995222011645022
    H                1.560061699213471    -2.508975100119810    -2.470468011645023

}
e, wfn = energy('scf', return_wfn=True)
gdma(wfn)
dmavals = variable('DMA DISTRIBUTED MULTIPOLES')
charges = np.array(dmavals)
print(charges)
np.save('SSI-029VAL-054LEU-1-dimer.npy', np.array(charges))--------------------------------------------------------------------------

*** tstart() called on ds3
*** at Mon Apr 27 07:38:23 2020

   => Loading Basis Set <=

    Name: CC-PVDZ
    Role: ORBITAL
    Keyword: BASIS
    atoms 1-2, 9-10  entry C          line   138 file /theoryfs2/ds/metcalf/miniconda2/envs/tf2gpu/share/psi4/basis/cc-pvdz.gbs 
    atoms 3-8, 11-16 entry H          line    22 file /theoryfs2/ds/metcalf/miniconda2/envs/tf2gpu/share/psi4/basis/cc-pvdz.gbs 


         ---------------------------------------------------------
                                   SCF
               by Justin Turney, Rob Parrish, Andy Simmonett
                          and Daniel G. A. Smith
                              RHF Reference
                        1 Threads,    500 MiB Core
         ---------------------------------------------------------

  ==> Geometry <==

    Molecular point group: c1
    Full point group: C1

    Geometry (in Angstrom), charge = 0, multiplicity = 1:

       Center              X                  Y                   Z               Mass       
    ------------   -----------------  -----------------  -----------------  -----------------
         C           -0.962948300787     1.296364899880     0.708697988355    12.000000000000
         C           -1.816948300787     1.776364899880     1.882697988355    12.000000000000
         H            0.090051699213     1.265364899880     0.995697988355     1.007825032230
         H           -1.284948300787     0.293364899880     0.423697988355     1.007825032230
         H           -1.087948300787     1.941364899880    -0.161302011645     1.007825032230
         H           -2.833948300787     1.940364899880     1.527697988355     1.007825032230
         H           -1.417468300787     2.718054899880     2.287207988355     1.007825032230
         H           -1.840748300787     1.015494899880     2.676747988355     1.007825032230
         C            0.820051699213    -1.203635100120    -0.914302011645    12.000000000000
         C            1.964051699213    -1.867635100120    -1.673302011645    12.000000000000
         H            1.217051699213    -0.473635100120    -0.210302011645     1.007825032230
         H            0.170051699213    -0.678635100120    -1.615302011645     1.007825032230
         H            0.231051699213    -1.951635100120    -0.380302011645     1.007825032230
         H            2.577051699213    -1.091635100120    -2.123302011645     1.007825032230
         H            2.569651699213    -2.486873100120    -0.995222011645     1.007825032230
         H            1.560061699213    -2.508975100120    -2.470468011645     1.007825032230

  Running in c1 symmetry.

  Rotational constants: A =      1.01506  B =      0.04156  C =      0.04134 [cm^-1]
  Rotational constants: A =  30430.66421  B =   1245.91119  C =   1239.43034 [MHz]
  Nuclear repulsion =  121.316614961014594

  Charge       = 0
  Multiplicity = 1
  Electrons    = 36
  Nalpha       = 18
  Nbeta        = 18

  ==> Algorithm <==

  SCF Algorithm Type is PK.
  DIIS enabled.
  MOM disabled.
  Fractional occupation disabled.
  Guess Type is SAD.
  Energy threshold   = 1.00e-06
  Density threshold  = 1.00e-10
  Integral threshold = 0.00e+00

  ==> Primary Basis <==

  Basis Set: CC-PVDZ
    Blend: CC-PVDZ
    Number of shells: 60
    Number of basis function: 116
    Number of Cartesian functions: 120
    Spherical Harmonics?: true
    Max angular momentum: 2

  ==> Pre-Iterations <==

   -------------------------------------------------------
    Irrep   Nso     Nmo     Nalpha   Nbeta   Ndocc  Nsocc
   -------------------------------------------------------
     A        116     116       0       0       0       0
   -------------------------------------------------------
    Total     116     116      18      18      18       0
   -------------------------------------------------------

  ==> Integral Setup <==

  Using integral reordering PK algorithm.
  Sizing the integral batches needed.
  Building batch lookup table.
   Calculation information:
      Number of atoms:                  16
      Number of AO shells:              60
      Number of primitives:            148
      Number of atomic orbitals:       120
      Number of basis functions:       116

      Integral cutoff                 1.00e-12
      Number of threads:                 1

	Batch   1 pq = [       0,    6786] index = [             0,23028291] size =     23028291
  Task number: 3
  Buffer size: 11059200
  Buffer per thread: 2
  We computed 1369239 shell quartets total.
  Whereas there are 1675365 unique shell quartets.

  ==> DiskJK: Disk-Based J/K Matrices <==

    J tasked:                  Yes
    K tasked:                  Yes
    wK tasked:                  No
    Memory [MiB]:              375
    Schwarz Cutoff:          1E-12

    OpenMP threads:              1

  Minimum eigenvalue in the overlap matrix is 5.8367728193E-03.
  Using Symmetric Orthogonalization.

  SCF Guess: Superposition of Atomic Densities via on-the-fly atomic UHF.

  ==> Iterations <==

                        Total Energy        Delta E     RMS |[F,P]|

   @RHF iter SAD:  -157.36436620416717   -1.57364e+02   0.00000e+00 
   @RHF iter   1:  -158.30626140459603   -9.41895e-01   4.21690e-03 DIIS
   @RHF iter   2:  -158.44037592155001   -1.34115e-01   1.79132e-03 DIIS
   @RHF iter   3:  -158.46369161689432   -2.33157e-02   3.51480e-04 DIIS
   @RHF iter   4:  -158.46554019545363   -1.84858e-03   3.92973e-05 DIIS
   @RHF iter   5:  -158.46556430844470   -2.41130e-05   6.99848e-06 DIIS
   @RHF iter   6:  -158.46556501136052   -7.02916e-07   1.26988e-06 DIIS
   @RHF iter   7:  -158.46556502681571   -1.54552e-08   3.36628e-07 DIIS
   @RHF iter   8:  -158.46556502793786   -1.12215e-09   4.68827e-08 DIIS
   @RHF iter   9:  -158.46556502797640   -3.85398e-11   9.35065e-09 DIIS
   @RHF iter  10:  -158.46556502797796   -1.56319e-12   2.22786e-09 DIIS
   @RHF iter  11:  -158.46556502797850   -5.40012e-13   3.49785e-10 DIIS
   @RHF iter  12:  -158.46556502797822    2.84217e-13   7.12952e-11 DIIS
  Energy and wave function converged.


  ==> Post-Iterations <==

    Orbital Energies [Eh]
    ---------------------

    Doubly Occupied:                                                      

       1A    -11.218372     2A    -11.217532     3A    -11.215638  
       4A    -11.214989     5A     -1.019234     6A     -1.015940  
       7A     -0.840406     8A     -0.830529     9A     -0.601314  
      10A     -0.598791    11A     -0.595301    12A     -0.593588  
      13A     -0.507520    14A     -0.494897    15A     -0.489951  
      16A     -0.485466    17A     -0.480710    18A     -0.477533  

    Virtual:                                                              

      19A      0.178043    20A      0.193827    21A      0.224146  
      22A      0.233377    23A      0.240963    24A      0.262054  
      25A      0.266769    26A      0.279336    27A      0.283896  
      28A      0.292563    29A      0.301381    30A      0.342593  
      31A      0.386650    32A      0.417771    33A      0.569726  
      34A      0.589967    35A      0.596536    36A      0.602112  
      37A      0.607462    38A      0.647808    39A      0.670743  
      40A      0.700955    41A      0.715753    42A      0.759165  
      43A      0.850382    44A      0.888453    45A      0.889559  
      46A      0.892880    47A      0.894397    48A      0.898749  
      49A      0.901134    50A      0.913209    51A      0.916453  
      52A      0.920194    53A      0.934334    54A      0.951557  
      55A      0.962198    56A      1.002256    57A      1.122778  
      58A      1.127887    59A      1.128729    60A      1.159145  
      61A      1.216697    62A      1.272458    63A      1.468248  
      64A      1.478085    65A      1.484649    66A      1.490473  
      67A      1.577585    68A      1.586714    69A      1.680992  
      70A      1.682314    71A      1.694337    72A      1.696049  
      73A      1.848085    74A      1.855414    75A      1.876767  
      76A      1.880317    77A      1.900523    78A      1.920892  
      79A      1.925543    80A      1.939024    81A      1.941816  
      82A      1.946083    83A      1.948990    84A      1.957631  
      85A      1.961593    86A      1.972490    87A      2.028644  
      88A      2.068457    89A      2.107371    90A      2.111197  
      91A      2.113340    92A      2.122747    93A      2.300807  
      94A      2.307379    95A      2.322526    96A      2.337109  
      97A      2.445119    98A      2.460942    99A      2.462110  
     100A      2.481301   101A      2.562640   102A      2.567475  
     103A      2.576815   104A      2.580546   105A      2.759447  
     106A      2.765850   107A      2.783285   108A      2.792851  
     109A      2.844614   110A      2.847739   111A      2.855395  
     112A      2.862552   113A      2.946341   114A      2.949085  
     115A      2.956903   116A      2.970791  

    Final Occupation by Irrep:
              A 
    DOCC [    18 ]

  @RHF Final Energy:  -158.46556502797822

   => Energetics <=

    Nuclear Repulsion Energy =            121.3166149610145936
    One-Electron Energy =                -451.7689383150187723
    Two-Electron Energy =                 171.9867583260259778
    Total Energy =                       -158.4655650279782151

Computation Completed


Properties will be evaluated at   0.000000,   0.000000,   0.000000 [a0]

Properties computed using the SCF density matrix

  Nuclear Dipole Moment: [e a0]
     X:    -0.0470      Y:    -0.0163      Z:    -0.0423

  Electronic Dipole Moment: [e a0]
     X:     0.0372      Y:     0.0212      Z:     0.0333

  Dipole Moment: [e a0]
     X:    -0.0098      Y:     0.0049      Z:    -0.0090     Total:     0.0142

  Dipole Moment: [D]
     X:    -0.0248      Y:     0.0126      Z:    -0.0229     Total:     0.0360


*** tstop() called on ds3 at Mon Apr 27 07:38:40 2020
Module time:
	user time   =       7.24 seconds =       0.12 minutes
	system time =       2.56 seconds =       0.04 minutes
	total time  =         17 seconds =       0.28 minutes
Total time:
	user time   =       7.24 seconds =       0.12 minutes
	system time =       2.56 seconds =       0.04 minutes
	total time  =         17 seconds =       0.28 minutes
                                     G D M A

                                 by Anthony Stone

                           version 2.2.06, 22 June 2011

               Distributed Multipoles from Gaussian wavefunctions


Starting at 7:38:40 on 27 Apr 2020  


Using SCF density matrix from file ./SSI/SSI-029VAL-054LEU-1-dimer.test.28818.fchk


                         Distributed Multipole Analysis

Standard DMA

Positions and radii in angstrom
Multipole moments in atomic units, ea_0^k for rank k

C          x = -0.962948  y =  1.296365  z =  0.708698 angstrom
           Maximum rank =  0   Radius =  0.650 angstrom
                   Q00  =  -0.246401

C          x = -1.816948  y =  1.776365  z =  1.882698 angstrom
           Maximum rank =  0   Radius =  0.650 angstrom
                   Q00  =  -0.228007

H          x =  0.090052  y =  1.265365  z =  0.995698 angstrom
           Maximum rank =  0   Radius =  0.325 angstrom
                   Q00  =   0.077323

H          x = -1.284948  y =  0.293365  z =  0.423698 angstrom
           Maximum rank =  0   Radius =  0.325 angstrom
                   Q00  =   0.079238

H          x = -1.087948  y =  1.941365  z = -0.161302 angstrom
           Maximum rank =  0   Radius =  0.325 angstrom
                   Q00  =   0.079989

H          x = -2.833948  y =  1.940365  z =  1.527698 angstrom
           Maximum rank =  0   Radius =  0.325 angstrom
                   Q00  =   0.079009

H          x = -1.417468  y =  2.718055  z =  2.287208 angstrom
           Maximum rank =  0   Radius =  0.325 angstrom
                   Q00  =   0.078195

H          x = -1.840748  y =  1.015495  z =  2.676748 angstrom
           Maximum rank =  0   Radius =  0.325 angstrom
                   Q00  =   0.078761

C          x =  0.820052  y = -1.203635  z = -0.914302 angstrom
           Maximum rank =  0   Radius =  0.650 angstrom
                   Q00  =  -0.233730

C          x =  1.964052  y = -1.867635  z = -1.673302 angstrom
           Maximum rank =  0   Radius =  0.650 angstrom
                   Q00  =  -0.234916

H          x =  1.217052  y = -0.473635  z = -0.210302 angstrom
           Maximum rank =  0   Radius =  0.325 angstrom
                   Q00  =   0.079668

H          x =  0.170052  y = -0.678635  z = -1.615302 angstrom
           Maximum rank =  0   Radius =  0.325 angstrom
                   Q00  =   0.076888

H          x =  0.231052  y = -1.951635  z = -0.380302 angstrom
           Maximum rank =  0   Radius =  0.325 angstrom
                   Q00  =   0.077828

H          x =  2.577052  y = -1.091635  z = -2.123302 angstrom
           Maximum rank =  0   Radius =  0.325 angstrom
                   Q00  =   0.080140

H          x =  2.569652  y = -2.486873  z = -0.995222 angstrom
           Maximum rank =  0   Radius =  0.325 angstrom
                   Q00  =   0.078953

H          x =  1.560062  y = -2.508975  z = -2.470468 angstrom
           Maximum rank =  0   Radius =  0.325 angstrom
                   Q00  =   0.077061

Total multipoles referred to origin at
           x =   0.000000,  y =    0.000000,  z =    0.000000 angstrom
                   Q00  =  -0.000000

Finished at 7:38:40 on 27 Apr 2020  

  DMA results are available in the Python driver through the
	  variable('DMA DISTRIBUTED MULTIPOLES')
  and
	  variable('DMA TOTAL MULTIPOLES')
  commands.


    Psi4 stopped on: Monday, 27 April 2020 07:38AM
    Psi4 wall time for execution: 0:00:17.26

*** Psi4 exiting successfully. Buy a developer a beer!
