
    -----------------------------------------------------------------------
          Psi4: An Open-Source Ab Initio Electronic Structure Package
                               Psi4 1.3.2 release

                         Git: Rev {HEAD} ecbda83 


    R. M. Parrish, L. A. Burns, D. G. A. Smith, A. C. Simmonett,
    A. E. DePrince III, E. G. Hohenstein, U. Bozkaya, A. Yu. Sokolov,
    R. Di Remigio, R. M. Richard, J. F. Gonthier, A. M. James,
    H. R. McAlexander, A. Kumar, M. Saitow, X. Wang, B. P. Pritchard,
    P. Verma, H. F. Schaefer III, K. Patkowski, R. A. King, E. F. Valeev,
    F. A. Evangelista, J. M. Turney, T. D. Crawford, and C. D. Sherrill,
    J. Chem. Theory Comput. 13(7) pp 3185--3197 (2017).
    (doi: 10.1021/acs.jctc.7b00174)


                         Additional Contributions by
    P. Kraus, H. Kruse, M. H. Lechner, M. C. Schieber, R. A. Shaw,
    A. Alenaizan, R. Galvelis, Z. L. Glick, S. Lehtola, and J. P. Misiewicz

    -----------------------------------------------------------------------


    Psi4 started on: Tuesday, 28 April 2020 09:30PM

    Process ID: 21306
    Host:       ds3
    PSIDATADIR: /theoryfs2/ds/metcalf/miniconda2/envs/tf2gpu/share/psi4
    Memory:     500.0 MiB
    Threads:    1
    
  ==> Input File <==

--------------------------------------------------------------------------
import numpy as np
set {scf_type pk
basis cc-pvdz
d_convergence 10
gdma_switch   0
gdma_limit    0
gdma_origin   [ 0.0,  0.0,  0.0 ]
}
molecule test {
    units Angstrom
    0 1
    --
    0 1
    C               -4.088020231226263    -1.473794245021089     0.856279466611052
    C               -0.956020231226264    -0.226794245021089    -0.821720533388948
    C               -2.034020231226263    -0.015794245021089     0.075279466611052
    C               -2.849020231226264    -1.202794245021089     0.069279466611052
    C               -2.238020231226264    -2.048794245021089    -0.795720533388948
    C                0.005979768773736     0.730205754978911    -1.066720533388948
    C               -0.122020231226264     1.945205754978911    -0.419720533388948
    C               -1.170020231226264     2.173205754978911     0.475279466611052
    C               -2.111020231226264     1.209205754978911     0.742279466611052
    N               -1.113020231226264    -1.482794245021089    -1.322720533388948
    H                0.817979768773736     0.537205754978911    -1.752720533388948
    H                0.611979768773736     2.721205754978911    -0.591720533388948
    H               -0.565020231226264    -1.920794245021089    -2.068720533388948
    H               -1.220020231226264     3.107205754978911     1.007279466611052
    H               -2.600020231226264    -3.037794245021089    -1.048720533388948
    H               -2.890020231226264     1.392205754978912     1.464279466611052
    H               -3.929020231226264    -1.121794245021089     1.863279466611052
    H               -4.220020231226264    -2.555794245021088     0.922279466611052
    H               -5.013973231226264    -1.044728245021089     0.445779466611052
    C                3.467979768773736     0.175205754978911     0.500279466611052
    C                3.907979768773736    -1.103794245021089     1.248279466611052
    C                3.987979768773736     1.427205754978911     1.212279466611052
    C                3.859979768773736     0.161205754978911    -0.975720533388948
    H                2.379979768773736     0.218205754978911     0.544279466611052
    H                3.511979768773736    -1.036794245021089     2.260279466611053
    H                5.075979768773736     1.467205754978911     1.168279466611053
    H                3.583979768773736     2.311205754978912     0.719279466611052
    H                3.666979768773736     1.426205754978912     2.254279466611053
    H                3.357979768773736    -0.654794245021089    -1.493720533388948
    H                3.553979768773736     1.097205754978911    -1.441720533388948
    H                4.935979768773737     0.046205754978911    -1.075720533388947
    H                5.001409768773736    -1.199669245021089     1.320569466611052
    H                3.432219768773736    -1.982510245021089     0.788379466611052

}
e, wfn = energy('scf', return_wfn=True)
gdma(wfn)
dmavals = variable('DMA DISTRIBUTED MULTIPOLES')
charges = np.array(dmavals)
print(charges)
np.save('SSI-031TRP-164VAL-1-dimer.npy', np.array(charges))--------------------------------------------------------------------------

*** tstart() called on ds3
*** at Tue Apr 28 21:30:08 2020

   => Loading Basis Set <=

    Name: CC-PVDZ
    Role: ORBITAL
    Keyword: BASIS
    atoms 1-9, 20-23   entry C          line   138 file /theoryfs2/ds/metcalf/miniconda2/envs/tf2gpu/share/psi4/basis/cc-pvdz.gbs 
    atoms 10           entry N          line   168 file /theoryfs2/ds/metcalf/miniconda2/envs/tf2gpu/share/psi4/basis/cc-pvdz.gbs 
    atoms 11-19, 24-33 entry H          line    22 file /theoryfs2/ds/metcalf/miniconda2/envs/tf2gpu/share/psi4/basis/cc-pvdz.gbs 


         ---------------------------------------------------------
                                   SCF
               by Justin Turney, Rob Parrish, Andy Simmonett
                          and Daniel G. A. Smith
                              RHF Reference
                        1 Threads,    500 MiB Core
         ---------------------------------------------------------

  ==> Geometry <==

    Molecular point group: c1
    Full point group: C1

    Geometry (in Angstrom), charge = 0, multiplicity = 1:

       Center              X                  Y                   Z               Mass       
    ------------   -----------------  -----------------  -----------------  -----------------
         C           -4.088020231226    -1.473794245021     0.856279466611    12.000000000000
         C           -0.956020231226    -0.226794245021    -0.821720533389    12.000000000000
         C           -2.034020231226    -0.015794245021     0.075279466611    12.000000000000
         C           -2.849020231226    -1.202794245021     0.069279466611    12.000000000000
         C           -2.238020231226    -2.048794245021    -0.795720533389    12.000000000000
         C            0.005979768774     0.730205754979    -1.066720533389    12.000000000000
         C           -0.122020231226     1.945205754979    -0.419720533389    12.000000000000
         C           -1.170020231226     2.173205754979     0.475279466611    12.000000000000
         C           -2.111020231226     1.209205754979     0.742279466611    12.000000000000
         N           -1.113020231226    -1.482794245021    -1.322720533389    14.003074004430
         H            0.817979768774     0.537205754979    -1.752720533389     1.007825032230
         H            0.611979768774     2.721205754979    -0.591720533389     1.007825032230
         H           -0.565020231226    -1.920794245021    -2.068720533389     1.007825032230
         H           -1.220020231226     3.107205754979     1.007279466611     1.007825032230
         H           -2.600020231226    -3.037794245021    -1.048720533389     1.007825032230
         H           -2.890020231226     1.392205754979     1.464279466611     1.007825032230
         H           -3.929020231226    -1.121794245021     1.863279466611     1.007825032230
         H           -4.220020231226    -2.555794245021     0.922279466611     1.007825032230
         H           -5.013973231226    -1.044728245021     0.445779466611     1.007825032230
         C            3.467979768774     0.175205754979     0.500279466611    12.000000000000
         C            3.907979768774    -1.103794245021     1.248279466611    12.000000000000
         C            3.987979768774     1.427205754979     1.212279466611    12.000000000000
         C            3.859979768774     0.161205754979    -0.975720533389    12.000000000000
         H            2.379979768774     0.218205754979     0.544279466611     1.007825032230
         H            3.511979768774    -1.036794245021     2.260279466611     1.007825032230
         H            5.075979768774     1.467205754979     1.168279466611     1.007825032230
         H            3.583979768774     2.311205754979     0.719279466611     1.007825032230
         H            3.666979768774     1.426205754979     2.254279466611     1.007825032230
         H            3.357979768774    -0.654794245021    -1.493720533389     1.007825032230
         H            3.553979768774     1.097205754979    -1.441720533389     1.007825032230
         H            4.935979768774     0.046205754979    -1.075720533389     1.007825032230
         H            5.001409768774    -1.199669245021     1.320569466611     1.007825032230
         H            3.432219768774    -1.982510245021     0.788379466611     1.007825032230

  Running in c1 symmetry.

  Rotational constants: A =      0.03558  B =      0.01037  C =      0.00937 [cm^-1]
  Rotational constants: A =   1066.72800  B =    310.91857  C =    281.03871 [MHz]
  Nuclear repulsion =  839.828970090278517

  Charge       = 0
  Multiplicity = 1
  Electrons    = 104
  Nalpha       = 52
  Nbeta        = 52

  ==> Algorithm <==

  SCF Algorithm Type is PK.
  DIIS enabled.
  MOM disabled.
  Fractional occupation disabled.
  Guess Type is SAD.
  Energy threshold   = 1.00e-06
  Density threshold  = 1.00e-10
  Integral threshold = 0.00e+00

  ==> Primary Basis <==

  Basis Set: CC-PVDZ
    Blend: CC-PVDZ
    Number of shells: 141
    Number of basis function: 291
    Number of Cartesian functions: 305
    Spherical Harmonics?: true
    Max angular momentum: 2

  ==> Pre-Iterations <==

   -------------------------------------------------------
    Irrep   Nso     Nmo     Nalpha   Nbeta   Ndocc  Nsocc
   -------------------------------------------------------
     A        291     291       0       0       0       0
   -------------------------------------------------------
    Total     291     291      52      52      52       0
   -------------------------------------------------------

  ==> Integral Setup <==

  Using integral reordering PK algorithm.
  Sizing the integral batches needed.
  Building batch lookup table.
   Calculation information:
      Number of atoms:                  33
      Number of AO shells:             141
      Number of primitives:            403
      Number of atomic orbitals:       305
      Number of basis functions:       291

      Integral cutoff                 1.00e-12
      Number of threads:                 1

	Batch   1 pq = [       0,    9405] index = [             0,44231715] size =     44231715
	Batch   2 pq = [    9405,   13301] index = [      44231715,88464951] size =     44233236
	Batch   3 pq = [   13301,   16290] index = [      88464951,132690195] size =     44225244
	Batch   4 pq = [   16290,   18810] index = [     132690195,176917455] size =     44227260
	Batch   5 pq = [   18810,   21030] index = [     176917455,221140965] size =     44223510
	Batch   6 pq = [   21030,   23037] index = [     221140965,265363203] size =     44222238
	Batch   7 pq = [   23037,   24883] index = [     265363203,309594286] size =     44231083
	Batch   8 pq = [   24883,   26601] index = [     309594286,353819901] size =     44225615
	Batch   9 pq = [   26601,   28214] index = [     353819901,398029005] size =     44209104
	Batch  10 pq = [   28214,   29740] index = [     398029005,442248670] size =     44219665
	Batch  11 pq = [   29740,   31191] index = [     442248670,486454836] size =     44206166
	Batch  12 pq = [   31191,   32578] index = [     486454836,530679331] size =     44224495
	Batch  13 pq = [   32578,   33908] index = [     530679331,574893186] size =     44213855
	Batch  14 pq = [   33908,   35188] index = [     574893186,619115266] size =     44222080
	Batch  15 pq = [   35188,   36423] index = [     619115266,663335676] size =     44220410
	Batch  16 pq = [   36423,   37617] index = [     663335676,707538153] size =     44202477
	Batch  17 pq = [   37617,   38775] index = [     707538153,751769700] size =     44231547
	Batch  18 pq = [   38775,   39899] index = [     751769700,795985050] size =     44215350
	Batch  19 pq = [   39899,   40992] index = [     795985050,840192528] size =     44207478
	Batch  20 pq = [   40992,   42057] index = [     840192528,884416653] size =     44224125
	Batch  21 pq = [   42057,   42486] index = [     884416653,902551341] size =     18134688
  Task number: 82
  Buffer size: 11059200
  Buffer per thread: 2
  We computed 45619560 shell quartets total.
  Whereas there are 50115066 unique shell quartets.

  ==> DiskJK: Disk-Based J/K Matrices <==

    J tasked:                  Yes
    K tasked:                  Yes
    wK tasked:                  No
    Memory [MiB]:              375
    Schwarz Cutoff:          1E-12

    OpenMP threads:              1

  Minimum eigenvalue in the overlap matrix is 2.2859963132E-04.
  Using Symmetric Orthogonalization.

  SCF Guess: Superposition of Atomic Densities via on-the-fly atomic UHF.

  ==> Iterations <==

                        Total Energy        Delta E     RMS |[F,P]|

   @RHF iter SAD:  -557.19390072067199   -5.57194e+02   0.00000e+00 
   @RHF iter   1:  -557.49194270479109   -2.98042e-01   2.43917e-03 DIIS
   @RHF iter   2:  -557.78412254086902   -2.92180e-01   1.08761e-03 DIIS
   @RHF iter   3:  -557.83707154489116   -5.29490e-02   2.74030e-04 DIIS
   @RHF iter   4:  -557.84162786336560   -4.55632e-03   1.22025e-04 DIIS
   @RHF iter   5:  -557.84233165832438   -7.03795e-04   1.92419e-05 DIIS
   @RHF iter   6:  -557.84236297692178   -3.13186e-05   8.40626e-06 DIIS
   @RHF iter   7:  -557.84236952988499   -6.55296e-06   2.98423e-06 DIIS
   @RHF iter   8:  -557.84237098916242   -1.45928e-06   1.25614e-06 DIIS
   @RHF iter   9:  -557.84237127988126   -2.90719e-07   5.46690e-07 DIIS
   @RHF iter  10:  -557.84237133921602   -5.93348e-08   2.33709e-07 DIIS
   @RHF iter  11:  -557.84237135387718   -1.46612e-08   9.14534e-08 DIIS
   @RHF iter  12:  -557.84237135615376   -2.27658e-09   3.16860e-08 DIIS
   @RHF iter  13:  -557.84237135631133   -1.57570e-10   1.03890e-08 DIIS
   @RHF iter  14:  -557.84237135633293   -2.16005e-11   3.39312e-09 DIIS
   @RHF iter  15:  -557.84237135633930   -6.36646e-12   1.70594e-09 DIIS
   @RHF iter  16:  -557.84237135633782    1.47793e-12   8.57498e-10 DIIS
   @RHF iter  17:  -557.84237135633407    3.75167e-12   3.75423e-10 DIIS
   @RHF iter  18:  -557.84237135634237   -8.29914e-12   1.36268e-10 DIIS
   @RHF iter  19:  -557.84237135633896    3.41061e-12   4.73914e-11 DIIS
  Energy and wave function converged.


  ==> Post-Iterations <==

    Orbital Energies [Eh]
    ---------------------

    Doubly Occupied:                                                      

       1A    -15.601922     2A    -11.261895     3A    -11.261765  
       4A    -11.229168     5A    -11.227826     6A    -11.226790  
       7A    -11.225879     8A    -11.219814     9A    -11.218152  
      10A    -11.217317    11A    -11.216282    12A    -11.212910  
      13A    -11.212494    14A    -11.209422    15A     -1.300805  
      16A     -1.132766    17A     -1.075525    18A     -1.074486  
      19A     -1.001963    20A     -0.989198    21A     -0.932852  
      22A     -0.926732    23A     -0.920811    24A     -0.841312  
      25A     -0.805230    26A     -0.758282    27A     -0.755451  
      28A     -0.720765    29A     -0.664290    30A     -0.643243  
      31A     -0.626072    32A     -0.604344    33A     -0.595519  
      34A     -0.591161    35A     -0.586849    36A     -0.581871  
      37A     -0.567579    38A     -0.554961    39A     -0.540755  
      40A     -0.537013    41A     -0.532046    42A     -0.527555  
      43A     -0.505433    44A     -0.492907    45A     -0.473110  
      46A     -0.465535    47A     -0.455689    48A     -0.450585  
      49A     -0.449967    50A     -0.374093    51A     -0.296683  
      52A     -0.275995  

    Virtual:                                                              

      53A      0.127081    54A      0.162774    55A      0.169037  
      56A      0.180951    57A      0.189620    58A      0.206167  
      59A      0.215232    60A      0.224553    61A      0.227832  
      62A      0.233397    63A      0.241275    64A      0.251786  
      65A      0.261198    66A      0.265306    67A      0.281135  
      68A      0.287653    69A      0.290234    70A      0.293730  
      71A      0.303927    72A      0.311425    73A      0.319105  
      74A      0.330186    75A      0.363912    76A      0.376767  
      77A      0.386496    78A      0.403598    79A      0.406895  
      80A      0.411790    81A      0.430975    82A      0.450744  
      83A      0.474695    84A      0.485714    85A      0.500149  
      86A      0.513746    87A      0.565635    88A      0.586009  
      89A      0.595805    90A      0.609149    91A      0.616201  
      92A      0.629424    93A      0.635316    94A      0.638668  
      95A      0.642596    96A      0.669426    97A      0.695701  
      98A      0.713757    99A      0.721305   100A      0.727452  
     101A      0.734778   102A      0.738821   103A      0.744147  
     104A      0.753865   105A      0.755557   106A      0.767212  
     107A      0.774549   108A      0.782886   109A      0.790583  
     110A      0.792995   111A      0.811191   112A      0.811760  
     113A      0.823886   114A      0.841710   115A      0.849640  
     116A      0.864069   117A      0.870101   118A      0.877870  
     119A      0.884368   120A      0.888876   121A      0.898616  
     122A      0.900179   123A      0.903856   124A      0.910278  
     125A      0.914965   126A      0.917527   127A      0.922108  
     128A      0.928831   129A      0.936093   130A      0.942882  
     131A      0.950985   132A      0.958448   133A      0.960998  
     134A      0.970694   135A      0.980769   136A      0.991698  
     137A      0.999803   138A      1.009876   139A      1.015312  
     140A      1.043721   141A      1.064343   142A      1.071725  
     143A      1.098003   144A      1.127042   145A      1.130225  
     146A      1.137903   147A      1.143911   148A      1.154366  
     149A      1.161783   150A      1.171424   151A      1.209553  
     152A      1.219813   153A      1.226887   154A      1.235988  
     155A      1.240629   156A      1.261626   157A      1.279291  
     158A      1.295426   159A      1.310239   160A      1.334418  
     161A      1.338217   162A      1.362264   163A      1.374969  
     164A      1.378665   165A      1.407391   166A      1.410895  
     167A      1.418633   168A      1.450422   169A      1.517920  
     170A      1.535788   171A      1.547242   172A      1.550503  
     173A      1.582621   174A      1.604766   175A      1.627221  
     176A      1.646641   177A      1.648552   178A      1.666853  
     179A      1.669750   180A      1.676596   181A      1.688822  
     182A      1.695073   183A      1.699653   184A      1.703988  
     185A      1.707956   186A      1.736939   187A      1.751892  
     188A      1.773520   189A      1.783201   190A      1.795406  
     191A      1.810369   192A      1.828006   193A      1.834763  
     194A      1.843523   195A      1.858305   196A      1.861057  
     197A      1.884485   198A      1.896559   199A      1.905901  
     200A      1.913627   201A      1.919498   202A      1.928728  
     203A      1.933688   204A      1.939310   205A      1.946880  
     206A      1.953197   207A      1.956186   208A      1.971285  
     209A      1.975687   210A      1.982420   211A      1.991814  
     212A      1.998522   213A      2.002018   214A      2.015947  
     215A      2.018974   216A      2.028372   217A      2.053647  
     218A      2.061073   219A      2.076954   220A      2.081709  
     221A      2.090830   222A      2.100040   223A      2.113025  
     224A      2.120117   225A      2.124602   226A      2.132598  
     227A      2.136730   228A      2.141026   229A      2.149885  
     230A      2.166350   231A      2.179464   232A      2.192030  
     233A      2.231755   234A      2.245337   235A      2.260073  
     236A      2.261462   237A      2.292606   238A      2.306548  
     239A      2.313062   240A      2.320483   241A      2.326341  
     242A      2.329942   243A      2.339897   244A      2.363200  
     245A      2.367362   246A      2.386973   247A      2.399801  
     248A      2.419488   249A      2.463009   250A      2.467542  
     251A      2.482107   252A      2.543870   253A      2.582013  
     254A      2.590452   255A      2.605667   256A      2.609479  
     257A      2.625783   258A      2.646444   259A      2.664203  
     260A      2.693312   261A      2.713342   262A      2.721431  
     263A      2.730455   264A      2.765309   265A      2.776859  
     266A      2.779191   267A      2.781546   268A      2.787139  
     269A      2.796701   270A      2.811220   271A      2.815928  
     272A      2.834436   273A      2.845357   274A      2.853308  
     275A      2.862543   276A      2.886031   277A      2.893159  
     278A      2.926257   279A      2.974828   280A      3.018159  
     281A      3.027821   282A      3.039811   283A      3.077382  
     284A      3.084326   285A      3.117053   286A      3.143525  
     287A      3.221539   288A      3.319628   289A      3.389786  
     290A      3.741842   291A      3.978294  

    Final Occupation by Irrep:
              A 
    DOCC [    52 ]

  @RHF Final Energy:  -557.84237135633896

   => Energetics <=

    Nuclear Repulsion Energy =            839.8289700902785171
    One-Electron Energy =               -2421.0005463847337523
    Two-Electron Energy =                1023.3292049381162769
    Total Energy =                       -557.8423713563389583

Computation Completed


Properties will be evaluated at   0.000000,   0.000000,   0.000000 [a0]

Properties computed using the SCF density matrix

  Nuclear Dipole Moment: [e a0]
     X:    18.2767      Y:    -0.2119      Z:     4.9586

  Electronic Dipole Moment: [e a0]
     X:   -18.2816      Y:    -0.4330      Z:    -5.3930

  Dipole Moment: [e a0]
     X:    -0.0049      Y:    -0.6449      Z:    -0.4345     Total:     0.7776

  Dipole Moment: [D]
     X:    -0.0125      Y:    -1.6391      Z:    -1.1043     Total:     1.9764


*** tstop() called on ds3 at Tue Apr 28 21:40:21 2020
Module time:
	user time   =     380.90 seconds =       6.35 minutes
	system time =     153.87 seconds =       2.56 minutes
	total time  =        613 seconds =      10.22 minutes
Total time:
	user time   =     380.90 seconds =       6.35 minutes
	system time =     153.87 seconds =       2.56 minutes
	total time  =        613 seconds =      10.22 minutes
                                     G D M A

                                 by Anthony Stone

                           version 2.2.06, 22 June 2011

               Distributed Multipoles from Gaussian wavefunctions


Starting at 21:40:21 on 28 Apr 2020 


Using SCF density matrix from file ./SSI/SSI-031TRP-164VAL-1-dimer.test.21306.fchk


                         Distributed Multipole Analysis

Standard DMA

Positions and radii in angstrom
Multipole moments in atomic units, ea_0^k for rank k

C          x = -4.088020  y = -1.473794  z =  0.856279 angstrom
           Maximum rank =  0   Radius =  0.650 angstrom
                   Q00  =  -0.211125

C          x = -0.956020  y = -0.226794  z = -0.821721 angstrom
           Maximum rank =  0   Radius =  0.650 angstrom
                   Q00  =   0.275461

C          x = -2.034020  y = -0.015794  z =  0.075279 angstrom
           Maximum rank =  0   Radius =  0.650 angstrom
                   Q00  =  -0.060441

C          x = -2.849020  y = -1.202794  z =  0.069279 angstrom
           Maximum rank =  0   Radius =  0.650 angstrom
                   Q00  =  -0.122657

C          x = -2.238020  y = -2.048794  z = -0.795721 angstrom
           Maximum rank =  0   Radius =  0.650 angstrom
                   Q00  =   0.072359

C          x =  0.005980  y =  0.730206  z = -1.066721 angstrom
           Maximum rank =  0   Radius =  0.650 angstrom
                   Q00  =  -0.123649

C          x = -0.122020  y =  1.945206  z = -0.419721 angstrom
           Maximum rank =  0   Radius =  0.650 angstrom
                   Q00  =  -0.073715

C          x = -1.170020  y =  2.173206  z =  0.475279 angstrom
           Maximum rank =  0   Radius =  0.650 angstrom
                   Q00  =  -0.055055

C          x = -2.111020  y =  1.209206  z =  0.742279 angstrom
           Maximum rank =  0   Radius =  0.650 angstrom
                   Q00  =  -0.090697

N          x = -1.113020  y = -1.482794  z = -1.322721 angstrom
           Maximum rank =  0   Radius =  0.650 angstrom
                   Q00  =  -0.492962

H          x =  0.817980  y =  0.537206  z = -1.752721 angstrom
           Maximum rank =  0   Radius =  0.325 angstrom
                   Q00  =   0.075701

H          x =  0.611980  y =  2.721206  z = -0.591721 angstrom
           Maximum rank =  0   Radius =  0.325 angstrom
                   Q00  =   0.063367

H          x = -0.565020  y = -1.920794  z = -2.068721 angstrom
           Maximum rank =  0   Radius =  0.325 angstrom
                   Q00  =   0.218141

H          x = -1.220020  y =  3.107206  z =  1.007279 angstrom
           Maximum rank =  0   Radius =  0.325 angstrom
                   Q00  =   0.056944

H          x = -2.600020  y = -3.037794  z = -1.048721 angstrom
           Maximum rank =  0   Radius =  0.325 angstrom
                   Q00  =   0.097106

H          x = -2.890020  y =  1.392206  z =  1.464279 angstrom
           Maximum rank =  0   Radius =  0.325 angstrom
                   Q00  =   0.066602

H          x = -3.929020  y = -1.121794  z =  1.863279 angstrom
           Maximum rank =  0   Radius =  0.325 angstrom
                   Q00  =   0.105006

H          x = -4.220020  y = -2.555794  z =  0.922279 angstrom
           Maximum rank =  0   Radius =  0.325 angstrom
                   Q00  =   0.101395

H          x = -5.013973  y = -1.044728  z =  0.445779 angstrom
           Maximum rank =  0   Radius =  0.325 angstrom
                   Q00  =   0.099518

C          x =  3.467980  y =  0.175206  z =  0.500279 angstrom
           Maximum rank =  0   Radius =  0.650 angstrom
                   Q00  =   0.021057

C          x =  3.907980  y = -1.103794  z =  1.248279 angstrom
           Maximum rank =  0   Radius =  0.650 angstrom
                   Q00  =  -0.254359

C          x =  3.987980  y =  1.427206  z =  1.212279 angstrom
           Maximum rank =  0   Radius =  0.650 angstrom
                   Q00  =  -0.244555

C          x =  3.859980  y =  0.161206  z = -0.975721 angstrom
           Maximum rank =  0   Radius =  0.650 angstrom
                   Q00  =  -0.253432

H          x =  2.379980  y =  0.218206  z =  0.544279 angstrom
           Maximum rank =  0   Radius =  0.325 angstrom
                   Q00  =   0.029412

H          x =  3.511980  y = -1.036794  z =  2.260279 angstrom
           Maximum rank =  0   Radius =  0.325 angstrom
                   Q00  =   0.082045

H          x =  5.075980  y =  1.467206  z =  1.168279 angstrom
           Maximum rank =  0   Radius =  0.325 angstrom
                   Q00  =   0.071499

H          x =  3.583980  y =  2.311206  z =  0.719279 angstrom
           Maximum rank =  0   Radius =  0.325 angstrom
                   Q00  =   0.078780

H          x =  3.666980  y =  1.426206  z =  2.254279 angstrom
           Maximum rank =  0   Radius =  0.325 angstrom
                   Q00  =   0.083765

H          x =  3.357980  y = -0.654794  z = -1.493721 angstrom
           Maximum rank =  0   Radius =  0.325 angstrom
                   Q00  =   0.074681

H          x =  3.553980  y =  1.097206  z = -1.441721 angstrom
           Maximum rank =  0   Radius =  0.325 angstrom
                   Q00  =   0.076852

H          x =  4.935980  y =  0.046206  z = -1.075721 angstrom
           Maximum rank =  0   Radius =  0.325 angstrom
                   Q00  =   0.076896

H          x =  5.001410  y = -1.199669  z =  1.320569 angstrom
           Maximum rank =  0   Radius =  0.325 angstrom
                   Q00  =   0.076443

H          x =  3.432220  y = -1.982510  z =  0.788379 angstrom
           Maximum rank =  0   Radius =  0.325 angstrom
                   Q00  =   0.079620

Total multipoles referred to origin at
           x =   0.000000,  y =    0.000000,  z =    0.000000 angstrom
                   Q00  =  -0.000000

Finished at 21:40:21 on 28 Apr 2020 

  DMA results are available in the Python driver through the
	  variable('DMA DISTRIBUTED MULTIPOLES')
  and
	  variable('DMA TOTAL MULTIPOLES')
  commands.


    Psi4 stopped on: Tuesday, 28 April 2020 09:40PM
    Psi4 wall time for execution: 0:10:13.27

*** Psi4 exiting successfully. Buy a developer a beer!
