
    -----------------------------------------------------------------------
          Psi4: An Open-Source Ab Initio Electronic Structure Package
                               Psi4 1.3.2 release

                         Git: Rev {HEAD} ecbda83 


    R. M. Parrish, L. A. Burns, D. G. A. Smith, A. C. Simmonett,
    A. E. DePrince III, E. G. Hohenstein, U. Bozkaya, A. Yu. Sokolov,
    R. Di Remigio, R. M. Richard, J. F. Gonthier, A. M. James,
    H. R. McAlexander, A. Kumar, M. Saitow, X. Wang, B. P. Pritchard,
    P. Verma, H. F. Schaefer III, K. Patkowski, R. A. King, E. F. Valeev,
    F. A. Evangelista, J. M. Turney, T. D. Crawford, and C. D. Sherrill,
    J. Chem. Theory Comput. 13(7) pp 3185--3197 (2017).
    (doi: 10.1021/acs.jctc.7b00174)


                         Additional Contributions by
    P. Kraus, H. Kruse, M. H. Lechner, M. C. Schieber, R. A. Shaw,
    A. Alenaizan, R. Galvelis, Z. L. Glick, S. Lehtola, and J. P. Misiewicz

    -----------------------------------------------------------------------


    Psi4 started on: Monday, 27 April 2020 10:08AM

    Process ID: 2385
    Host:       ds3
    PSIDATADIR: /theoryfs2/ds/metcalf/miniconda2/envs/tf2gpu/share/psi4
    Memory:     500.0 MiB
    Threads:    1
    
  ==> Input File <==

--------------------------------------------------------------------------
import numpy as np
set {scf_type pk
basis cc-pvdz
d_convergence 10
gdma_switch   0
gdma_limit    0
gdma_origin   [ 0.0,  0.0,  0.0 ]
}
molecule test {
    units Angstrom
    -1 1
    --
    -1 1
    C               -1.296534619920978    -1.704008638655969    -2.262598184211221
    C                0.072465380079022    -1.154008638655969    -2.642598184211221
    O                0.312465380079022     0.033991361344031    -2.332598184211222
    O                0.898465380079022    -1.870008638655969    -3.243598184211221
    H               -2.030534619920978    -1.280008638655969    -2.919598184211221
    H               -1.547534619920978    -1.355008638655969    -1.259598184211221
    H               -1.358144619920978    -2.802278638655969    -2.261878184211221
    C               -0.774534619920978     0.129991361344031     3.820401815788778
    C                0.685465380079022     1.900991361344031     1.011401815788779
    C               -0.261534619920978    -0.066008638655969     1.295401815788779
    C               -0.276534619920978     0.586991361344031     2.486401815788778
    N                0.347465380079022     0.773991361344031     0.390401815788779
    N                0.334465380079022     1.809991361344031     2.292401815788778
    H                0.491465380079022     0.572991361344031    -0.604598184211221
    H                1.183465380079022     2.746991361344031     0.548401815788779
    H               -0.628534619920978    -1.068008638655969     1.111401815788779
    H               -1.607534619920978    -0.557008638655969     3.656401815788779
    H               -1.151534619920978     0.991991361344031     4.372401815788779
    H               -0.002434619920978    -0.369388638655969     4.424121815788779

}
e, wfn = energy('scf', return_wfn=True)
gdma(wfn)
dmavals = variable('DMA DISTRIBUTED MULTIPOLES')
charges = np.array(dmavals)
print(charges)
np.save('SSI-083ASP-089HIE-1-dimer.npy', np.array(charges))--------------------------------------------------------------------------

*** tstart() called on ds3
*** at Mon Apr 27 10:08:54 2020

   => Loading Basis Set <=

    Name: CC-PVDZ
    Role: ORBITAL
    Keyword: BASIS
    atoms 1-2, 8-11  entry C          line   138 file /theoryfs2/ds/metcalf/miniconda2/envs/tf2gpu/share/psi4/basis/cc-pvdz.gbs 
    atoms 3-4        entry O          line   198 file /theoryfs2/ds/metcalf/miniconda2/envs/tf2gpu/share/psi4/basis/cc-pvdz.gbs 
    atoms 5-7, 14-19 entry H          line    22 file /theoryfs2/ds/metcalf/miniconda2/envs/tf2gpu/share/psi4/basis/cc-pvdz.gbs 
    atoms 12-13      entry N          line   168 file /theoryfs2/ds/metcalf/miniconda2/envs/tf2gpu/share/psi4/basis/cc-pvdz.gbs 


         ---------------------------------------------------------
                                   SCF
               by Justin Turney, Rob Parrish, Andy Simmonett
                          and Daniel G. A. Smith
                              RHF Reference
                        1 Threads,    500 MiB Core
         ---------------------------------------------------------

  ==> Geometry <==

    Molecular point group: c1
    Full point group: C1

    Geometry (in Angstrom), charge = -1, multiplicity = 1:

       Center              X                  Y                   Z               Mass       
    ------------   -----------------  -----------------  -----------------  -----------------
         C           -1.296534619921    -1.704008638656    -2.262598184211    12.000000000000
         C            0.072465380079    -1.154008638656    -2.642598184211    12.000000000000
         O            0.312465380079     0.033991361344    -2.332598184211    15.994914619570
         O            0.898465380079    -1.870008638656    -3.243598184211    15.994914619570
         H           -2.030534619921    -1.280008638656    -2.919598184211     1.007825032230
         H           -1.547534619921    -1.355008638656    -1.259598184211     1.007825032230
         H           -1.358144619921    -2.802278638656    -2.261878184211     1.007825032230
         C           -0.774534619921     0.129991361344     3.820401815789    12.000000000000
         C            0.685465380079     1.900991361344     1.011401815789    12.000000000000
         C           -0.261534619921    -0.066008638656     1.295401815789    12.000000000000
         C           -0.276534619921     0.586991361344     2.486401815789    12.000000000000
         N            0.347465380079     0.773991361344     0.390401815789    14.003074004430
         N            0.334465380079     1.809991361344     2.292401815789    14.003074004430
         H            0.491465380079     0.572991361344    -0.604598184211     1.007825032230
         H            1.183465380079     2.746991361344     0.548401815789     1.007825032230
         H           -0.628534619921    -1.068008638656     1.111401815789     1.007825032230
         H           -1.607534619921    -0.557008638656     3.656401815789     1.007825032230
         H           -1.151534619921     0.991991361344     4.372401815789     1.007825032230
         H           -0.002434619921    -0.369388638656     4.424121815789     1.007825032230

  Running in c1 symmetry.

  Rotational constants: A =      0.09781  B =      0.01717  C =      0.01537 [cm^-1]
  Rotational constants: A =   2932.15915  B =    514.73005  C =    460.82329 [MHz]
  Nuclear repulsion =  486.195726925028396

  Charge       = -1
  Multiplicity = 1
  Electrons    = 76
  Nalpha       = 38
  Nbeta        = 38

  ==> Algorithm <==

  SCF Algorithm Type is PK.
  DIIS enabled.
  MOM disabled.
  Fractional occupation disabled.
  Guess Type is SAD.
  Energy threshold   = 1.00e-06
  Density threshold  = 1.00e-10
  Integral threshold = 0.00e+00

  ==> Primary Basis <==

  Basis Set: CC-PVDZ
    Blend: CC-PVDZ
    Number of shells: 87
    Number of basis function: 185
    Number of Cartesian functions: 195
    Spherical Harmonics?: true
    Max angular momentum: 2

  ==> Pre-Iterations <==

   -------------------------------------------------------
    Irrep   Nso     Nmo     Nalpha   Nbeta   Ndocc  Nsocc
   -------------------------------------------------------
     A        185     185       0       0       0       0
   -------------------------------------------------------
    Total     185     185      38      38      38       0
   -------------------------------------------------------

  ==> Integral Setup <==

  Using integral reordering PK algorithm.
  Sizing the integral batches needed.
  Building batch lookup table.
   Calculation information:
      Number of atoms:                  19
      Number of AO shells:              87
      Number of primitives:            265
      Number of atomic orbitals:       195
      Number of basis functions:       185

      Integral cutoff                 1.00e-12
      Number of threads:                 1

	Batch   1 pq = [       0,    9405] index = [             0,44231715] size =     44231715
	Batch   2 pq = [    9405,   13301] index = [      44231715,88464951] size =     44233236
	Batch   3 pq = [   13301,   16290] index = [      88464951,132690195] size =     44225244
	Batch   4 pq = [   16290,   17205] index = [     132690195,148014615] size =     15324420
  Task number: 14
  Buffer size: 11059200
  Buffer per thread: 2
  We computed 5643350 shell quartets total.
  Whereas there are 7328706 unique shell quartets.

  ==> DiskJK: Disk-Based J/K Matrices <==

    J tasked:                  Yes
    K tasked:                  Yes
    wK tasked:                  No
    Memory [MiB]:              375
    Schwarz Cutoff:          1E-12

    OpenMP threads:              1

  Minimum eigenvalue in the overlap matrix is 1.2015315392E-03.
  Using Symmetric Orthogonalization.

  SCF Guess: Superposition of Atomic Densities via on-the-fly atomic UHF.

  ==> Iterations <==

                        Total Energy        Delta E     RMS |[F,P]|

   @RHF iter SAD:  -489.77596641571205   -4.89776e+02   0.00000e+00 
   @RHF iter   1:  -490.84896687236414   -1.07300e+00   4.13535e-03 DIIS
   @RHF iter   2:  -491.07287622084124   -2.23909e-01   2.33854e-03 DIIS
   @RHF iter   3:  -491.14297643683415   -7.01002e-02   3.99802e-04 DIIS
   @RHF iter   4:  -491.14636712225479   -3.39069e-03   1.60631e-04 DIIS
   @RHF iter   5:  -491.14691081371018   -5.43691e-04   3.52339e-05 DIIS
   @RHF iter   6:  -491.14694029551646   -2.94818e-05   1.47465e-05 DIIS
   @RHF iter   7:  -491.14694635957369   -6.06406e-06   4.06723e-06 DIIS
   @RHF iter   8:  -491.14694743055156   -1.07098e-06   2.10381e-06 DIIS
   @RHF iter   9:  -491.14694769589471   -2.65343e-07   7.89531e-07 DIIS
   @RHF iter  10:  -491.14694773977618   -4.38815e-08   2.06936e-07 DIIS
   @RHF iter  11:  -491.14694774226592   -2.48974e-09   5.30173e-08 DIIS
   @RHF iter  12:  -491.14694774239911   -1.33184e-10   2.81889e-08 DIIS
   @RHF iter  13:  -491.14694774243100   -3.18892e-11   1.01140e-08 DIIS
   @RHF iter  14:  -491.14694774243958   -8.58336e-12   3.86122e-09 DIIS
   @RHF iter  15:  -491.14694774243844    1.13687e-12   1.23147e-09 DIIS
   @RHF iter  16:  -491.14694774243884   -3.97904e-13   4.38605e-10 DIIS
   @RHF iter  17:  -491.14694774243969   -8.52651e-13   1.66638e-10 DIIS
   @RHF iter  18:  -491.14694774243912    5.68434e-13   6.16668e-11 DIIS
  Energy and wave function converged.


  ==> Post-Iterations <==

    Orbital Energies [Eh]
    ---------------------

    Doubly Occupied:                                                      

       1A    -20.293041     2A    -20.286374     3A    -15.472484  
       4A    -15.408704     5A    -11.166718     6A    -11.145784  
       7A    -11.129289     8A    -11.127565     9A    -11.122537  
      10A    -11.069386    11A     -1.207886    12A     -1.182166  
      13A     -1.068042    14A     -1.022288    15A     -0.917566  
      16A     -0.828396    17A     -0.820460    18A     -0.684693  
      19A     -0.636756    20A     -0.613873    21A     -0.530002  
      22A     -0.490858    23A     -0.485766    24A     -0.472827  
      25A     -0.445292    26A     -0.438834    27A     -0.435226  
      28A     -0.430449    29A     -0.425908    30A     -0.413648  
      31A     -0.369049    32A     -0.332888    33A     -0.294707  
      34A     -0.251452    35A     -0.215403    36A     -0.200980  
      37A     -0.193679    38A     -0.189210  

    Virtual:                                                              

      39A      0.292108    40A      0.308200    41A      0.321491  
      42A      0.329755    43A      0.332623    44A      0.354787  
      45A      0.373502    46A      0.383213    47A      0.392658  
      48A      0.425484    49A      0.456388    50A      0.460896  
      51A      0.503420    52A      0.519063    53A      0.552149  
      54A      0.574333    55A      0.593696    56A      0.617770  
      57A      0.678019    58A      0.719248    59A      0.728209  
      60A      0.743106    61A      0.759247    62A      0.783591  
      63A      0.804159    64A      0.814519    65A      0.824432  
      66A      0.849868    67A      0.863801    68A      0.894460  
      69A      0.899391    70A      0.921773    71A      0.946555  
      72A      0.952437    73A      0.962988    74A      0.971941  
      75A      0.975187    76A      1.006987    77A      1.013482  
      78A      1.016442    79A      1.030464    80A      1.044262  
      81A      1.055750    82A      1.080224    83A      1.085993  
      84A      1.093956    85A      1.125599    86A      1.178861  
      87A      1.192211    88A      1.195861    89A      1.214919  
      90A      1.235263    91A      1.262880    92A      1.266473  
      93A      1.286088    94A      1.321809    95A      1.322630  
      96A      1.379729    97A      1.406061    98A      1.414398  
      99A      1.423460   100A      1.448008   101A      1.474401  
     102A      1.529136   103A      1.548319   104A      1.551039  
     105A      1.565871   106A      1.569443   107A      1.587998  
     108A      1.610584   109A      1.643564   110A      1.650186  
     111A      1.701427   112A      1.715093   113A      1.730005  
     114A      1.737903   115A      1.782863   116A      1.817477  
     117A      1.831063   118A      1.839535   119A      1.869499  
     120A      1.906872   121A      1.943575   122A      1.955204  
     123A      1.993032   124A      1.998626   125A      2.036041  
     126A      2.040300   127A      2.050785   128A      2.062381  
     129A      2.075682   130A      2.082112   131A      2.097207  
     132A      2.120963   133A      2.124586   134A      2.165692  
     135A      2.176050   136A      2.197267   137A      2.217987  
     138A      2.232385   139A      2.273446   140A      2.308978  
     141A      2.329136   142A      2.346106   143A      2.357022  
     144A      2.404691   145A      2.413405   146A      2.442317  
     147A      2.470928   148A      2.484387   149A      2.556776  
     150A      2.573125   151A      2.590348   152A      2.623003  
     153A      2.669926   154A      2.681072   155A      2.709711  
     156A      2.737793   157A      2.773529   158A      2.807997  
     159A      2.832506   160A      2.858578   161A      2.894500  
     162A      2.914082   163A      2.935684   164A      2.951778  
     165A      2.960901   166A      2.966819   167A      2.991955  
     168A      3.036965   169A      3.042889   170A      3.083274  
     171A      3.188344   172A      3.226497   173A      3.262423  
     174A      3.275060   175A      3.301582   176A      3.345772  
     177A      3.376263   178A      3.592712   179A      3.613228  
     180A      3.754075   181A      3.805164   182A      3.956767  
     183A      4.040880   184A      4.076439   185A      4.169378  

    Final Occupation by Irrep:
              A 
    DOCC [    38 ]

  @RHF Final Energy:  -491.14694774243912

   => Energetics <=

    Nuclear Repulsion Energy =            486.1957269250283957
    One-Electron Energy =               -1647.0449807099994359
    Two-Electron Energy =                 669.7023060425319727
    Total Energy =                       -491.1469477424391243

Computation Completed


Properties will be evaluated at   0.000000,   0.000000,   0.000000 [a0]

Properties computed using the SCF density matrix

  Nuclear Dipole Moment: [e a0]
     X:    -6.2316      Y:    -2.9410      Z:     6.5906

  Electronic Dipole Moment: [e a0]
     X:     4.9490      Y:     3.5315      Z:    -3.6318

  Dipole Moment: [e a0]
     X:    -1.2826      Y:     0.5905      Z:     2.9588     Total:     3.2784

  Dipole Moment: [D]
     X:    -3.2600      Y:     1.5009      Z:     7.5204     Total:     8.3328


*** tstop() called on ds3 at Mon Apr 27 10:11:07 2020
Module time:
	user time   =      48.68 seconds =       0.81 minutes
	system time =      21.89 seconds =       0.36 minutes
	total time  =        133 seconds =       2.22 minutes
Total time:
	user time   =      48.68 seconds =       0.81 minutes
	system time =      21.89 seconds =       0.36 minutes
	total time  =        133 seconds =       2.22 minutes
                                     G D M A

                                 by Anthony Stone

                           version 2.2.06, 22 June 2011

               Distributed Multipoles from Gaussian wavefunctions


Starting at 10:11:7 on 27 Apr 2020  


Using SCF density matrix from file ./SSI/SSI-083ASP-089HIE-1-dimer.test.2385.fchk


                         Distributed Multipole Analysis

Standard DMA

Positions and radii in angstrom
Multipole moments in atomic units, ea_0^k for rank k

C          x = -1.296535  y = -1.704009  z = -2.262598 angstrom
           Maximum rank =  0   Radius =  0.650 angstrom
                   Q00  =  -0.286898

C          x =  0.072465  y = -1.154009  z = -2.642598 angstrom
           Maximum rank =  0   Radius =  0.650 angstrom
                   Q00  =   0.949110

O          x =  0.312465  y =  0.033991  z = -2.332598 angstrom
           Maximum rank =  0   Radius =  0.650 angstrom
                   Q00  =  -0.963406

O          x =  0.898465  y = -1.870009  z = -3.243598 angstrom
           Maximum rank =  0   Radius =  0.650 angstrom
                   Q00  =  -0.894965

H          x = -2.030535  y = -1.280009  z = -2.919598 angstrom
           Maximum rank =  0   Radius =  0.325 angstrom
                   Q00  =   0.091601

H          x = -1.547535  y = -1.355009  z = -1.259598 angstrom
           Maximum rank =  0   Radius =  0.325 angstrom
                   Q00  =   0.062705

H          x = -1.358145  y = -2.802279  z = -2.261878 angstrom
           Maximum rank =  0   Radius =  0.325 angstrom
                   Q00  =   0.058881

C          x = -0.774535  y =  0.129991  z =  3.820402 angstrom
           Maximum rank =  0   Radius =  0.650 angstrom
                   Q00  =  -0.191879

C          x =  0.685465  y =  1.900991  z =  1.011402 angstrom
           Maximum rank =  0   Radius =  0.650 angstrom
                   Q00  =   0.473135

C          x = -0.261535  y = -0.066009  z =  1.295402 angstrom
           Maximum rank =  0   Radius =  0.650 angstrom
                   Q00  =   0.051250

C          x = -0.276535  y =  0.586991  z =  2.486402 angstrom
           Maximum rank =  0   Radius =  0.650 angstrom
                   Q00  =   0.176642

N          x =  0.347465  y =  0.773991  z =  0.390402 angstrom
           Maximum rank =  0   Radius =  0.650 angstrom
                   Q00  =  -0.514050

N          x =  0.334465  y =  1.809991  z =  2.292402 angstrom
           Maximum rank =  0   Radius =  0.650 angstrom
                   Q00  =  -0.794313

H          x =  0.491465  y =  0.572991  z = -0.604598 angstrom
           Maximum rank =  0   Radius =  0.325 angstrom
                   Q00  =   0.329082

H          x =  1.183465  y =  2.746991  z =  0.548402 angstrom
           Maximum rank =  0   Radius =  0.325 angstrom
                   Q00  =   0.108374

H          x = -0.628535  y = -1.068009  z =  1.111402 angstrom
           Maximum rank =  0   Radius =  0.325 angstrom
                   Q00  =   0.082347

H          x = -1.607535  y = -0.557009  z =  3.656402 angstrom
           Maximum rank =  0   Radius =  0.325 angstrom
                   Q00  =   0.082035

H          x = -1.151535  y =  0.991991  z =  4.372402 angstrom
           Maximum rank =  0   Radius =  0.325 angstrom
                   Q00  =   0.096130

H          x = -0.002435  y = -0.369389  z =  4.424122 angstrom
           Maximum rank =  0   Radius =  0.325 angstrom
                   Q00  =   0.084218

Total multipoles referred to origin at
           x =   0.000000,  y =    0.000000,  z =    0.000000 angstrom
                   Q00  =  -1.000000

Finished at 10:11:7 on 27 Apr 2020  

  DMA results are available in the Python driver through the
	  variable('DMA DISTRIBUTED MULTIPOLES')
  and
	  variable('DMA TOTAL MULTIPOLES')
  commands.


    Psi4 stopped on: Monday, 27 April 2020 10:11AM
    Psi4 wall time for execution: 0:02:13.31

*** Psi4 exiting successfully. Buy a developer a beer!
