
    -----------------------------------------------------------------------
          Psi4: An Open-Source Ab Initio Electronic Structure Package
                               Psi4 1.3.2 release

                         Git: Rev {HEAD} ecbda83 


    R. M. Parrish, L. A. Burns, D. G. A. Smith, A. C. Simmonett,
    A. E. DePrince III, E. G. Hohenstein, U. Bozkaya, A. Yu. Sokolov,
    R. Di Remigio, R. M. Richard, J. F. Gonthier, A. M. James,
    H. R. McAlexander, A. Kumar, M. Saitow, X. Wang, B. P. Pritchard,
    P. Verma, H. F. Schaefer III, K. Patkowski, R. A. King, E. F. Valeev,
    F. A. Evangelista, J. M. Turney, T. D. Crawford, and C. D. Sherrill,
    J. Chem. Theory Comput. 13(7) pp 3185--3197 (2017).
    (doi: 10.1021/acs.jctc.7b00174)


                         Additional Contributions by
    P. Kraus, H. Kruse, M. H. Lechner, M. C. Schieber, R. A. Shaw,
    A. Alenaizan, R. Galvelis, Z. L. Glick, S. Lehtola, and J. P. Misiewicz

    -----------------------------------------------------------------------


    Psi4 started on: Tuesday, 28 April 2020 09:46AM

    Process ID: 28912
    Host:       ds3
    PSIDATADIR: /theoryfs2/ds/metcalf/miniconda2/envs/tf2gpu/share/psi4
    Memory:     500.0 MiB
    Threads:    1
    
  ==> Input File <==

--------------------------------------------------------------------------
import numpy as np
set {scf_type pk
basis cc-pvdz
d_convergence 10
gdma_switch   0
gdma_limit    0
gdma_origin   [ 0.0,  0.0,  0.0 ]
}
molecule test {
    units Angstrom
    0 1
    --
    0 1
    C                0.566511171782799    -0.873908615706997    -1.635666621142737
    C                1.687511171782799    -1.606908615706997    -0.903666621142737
    H               -0.371488828217201    -1.424908615706997    -1.543666621142737
    H                0.438511171782799     0.116091384293003    -1.201666621142737
    H                0.811511171782799    -0.743908615706997    -2.686666621142737
    H                2.619511171782799    -1.065908615706997    -1.063666621142737
    H                1.802287171782799    -2.630568615706997    -1.289601621142737
    H                1.486606171782799    -1.635093615706997     0.177463378857263
    C               -1.641488828217201     0.834091384293003     0.874333378857263
    C               -0.617488828217201     1.647091384293003     1.663333378857263
    H               -1.543488828217201     0.996091384293003    -0.197666621142737
    H               -1.487488828217201    -0.226908615706997     1.075333378857263
    H               -2.649488828217201     1.096091384293003     1.195333378857263
    H                0.378511171782799     1.278091384293003     1.430333378857263
    H               -0.655356828217201     2.708832384293003     1.378249378857263
    H               -0.770623828217201     1.527746384293003     2.746064378857263

}
e, wfn = energy('scf', return_wfn=True)
gdma(wfn)
dmavals = variable('DMA DISTRIBUTED MULTIPOLES')
charges = np.array(dmavals)
print(charges)
np.save('SSI-006VAL-020VAL-1-dimer.npy', np.array(charges))--------------------------------------------------------------------------

*** tstart() called on ds3
*** at Tue Apr 28 09:46:57 2020

   => Loading Basis Set <=

    Name: CC-PVDZ
    Role: ORBITAL
    Keyword: BASIS
    atoms 1-2, 9-10  entry C          line   138 file /theoryfs2/ds/metcalf/miniconda2/envs/tf2gpu/share/psi4/basis/cc-pvdz.gbs 
    atoms 3-8, 11-16 entry H          line    22 file /theoryfs2/ds/metcalf/miniconda2/envs/tf2gpu/share/psi4/basis/cc-pvdz.gbs 


         ---------------------------------------------------------
                                   SCF
               by Justin Turney, Rob Parrish, Andy Simmonett
                          and Daniel G. A. Smith
                              RHF Reference
                        1 Threads,    500 MiB Core
         ---------------------------------------------------------

  ==> Geometry <==

    Molecular point group: c1
    Full point group: C1

    Geometry (in Angstrom), charge = 0, multiplicity = 1:

       Center              X                  Y                   Z               Mass       
    ------------   -----------------  -----------------  -----------------  -----------------
         C            0.566511171783    -0.873908615707    -1.635666621143    12.000000000000
         C            1.687511171783    -1.606908615707    -0.903666621143    12.000000000000
         H           -0.371488828217    -1.424908615707    -1.543666621143     1.007825032230
         H            0.438511171783     0.116091384293    -1.201666621143     1.007825032230
         H            0.811511171783    -0.743908615707    -2.686666621143     1.007825032230
         H            2.619511171783    -1.065908615707    -1.063666621143     1.007825032230
         H            1.802287171783    -2.630568615707    -1.289601621143     1.007825032230
         H            1.486606171783    -1.635093615707     0.177463378857     1.007825032230
         C           -1.641488828217     0.834091384293     0.874333378857    12.000000000000
         C           -0.617488828217     1.647091384293     1.663333378857    12.000000000000
         H           -1.543488828217     0.996091384293    -0.197666621143     1.007825032230
         H           -1.487488828217    -0.226908615707     1.075333378857     1.007825032230
         H           -2.649488828217     1.096091384293     1.195333378857     1.007825032230
         H            0.378511171783     1.278091384293     1.430333378857     1.007825032230
         H           -0.655356828217     2.708832384293     1.378249378857     1.007825032230
         H           -0.770623828217     1.527746384293     2.746064378857     1.007825032230

  Running in c1 symmetry.

  Rotational constants: A =      0.36741  B =      0.05855  C =      0.05440 [cm^-1]
  Rotational constants: A =  11014.63154  B =   1755.30949  C =   1630.79485 [MHz]
  Nuclear repulsion =  124.397282175519805

  Charge       = 0
  Multiplicity = 1
  Electrons    = 36
  Nalpha       = 18
  Nbeta        = 18

  ==> Algorithm <==

  SCF Algorithm Type is PK.
  DIIS enabled.
  MOM disabled.
  Fractional occupation disabled.
  Guess Type is SAD.
  Energy threshold   = 1.00e-06
  Density threshold  = 1.00e-10
  Integral threshold = 0.00e+00

  ==> Primary Basis <==

  Basis Set: CC-PVDZ
    Blend: CC-PVDZ
    Number of shells: 60
    Number of basis function: 116
    Number of Cartesian functions: 120
    Spherical Harmonics?: true
    Max angular momentum: 2

  ==> Pre-Iterations <==

   -------------------------------------------------------
    Irrep   Nso     Nmo     Nalpha   Nbeta   Ndocc  Nsocc
   -------------------------------------------------------
     A        116     116       0       0       0       0
   -------------------------------------------------------
    Total     116     116      18      18      18       0
   -------------------------------------------------------

  ==> Integral Setup <==

  Using integral reordering PK algorithm.
  Sizing the integral batches needed.
  Building batch lookup table.
   Calculation information:
      Number of atoms:                  16
      Number of AO shells:              60
      Number of primitives:            148
      Number of atomic orbitals:       120
      Number of basis functions:       116

      Integral cutoff                 1.00e-12
      Number of threads:                 1

	Batch   1 pq = [       0,    6786] index = [             0,23028291] size =     23028291
  Task number: 3
  Buffer size: 11059200
  Buffer per thread: 2
  We computed 1520057 shell quartets total.
  Whereas there are 1675365 unique shell quartets.

  ==> DiskJK: Disk-Based J/K Matrices <==

    J tasked:                  Yes
    K tasked:                  Yes
    wK tasked:                  No
    Memory [MiB]:              375
    Schwarz Cutoff:          1E-12

    OpenMP threads:              1

  Minimum eigenvalue in the overlap matrix is 7.5183460339E-03.
  Using Symmetric Orthogonalization.

  SCF Guess: Superposition of Atomic Densities via on-the-fly atomic UHF.

  ==> Iterations <==

                        Total Energy        Delta E     RMS |[F,P]|

   @RHF iter SAD:  -157.35506720900668   -1.57355e+02   0.00000e+00 
   @RHF iter   1:  -158.30779255671885   -9.52725e-01   4.21784e-03 DIIS
   @RHF iter   2:  -158.44134790621678   -1.33555e-01   1.80513e-03 DIIS
   @RHF iter   3:  -158.46495811735872   -2.36102e-02   3.50302e-04 DIIS
   @RHF iter   4:  -158.46679528587666   -1.83717e-03   3.88387e-05 DIIS
   @RHF iter   5:  -158.46681888648305   -2.36006e-05   6.55034e-06 DIIS
   @RHF iter   6:  -158.46681952026438   -6.33781e-07   1.02031e-06 DIIS
   @RHF iter   7:  -158.46681953087369   -1.06093e-08   3.02355e-07 DIIS
   @RHF iter   8:  -158.46681953164068   -7.66988e-10   3.67581e-08 DIIS
   @RHF iter   9:  -158.46681953165944   -1.87583e-11   7.41953e-09 DIIS
   @RHF iter  10:  -158.46681953166032   -8.81073e-13   1.66272e-09 DIIS
   @RHF iter  11:  -158.46681953166012    1.98952e-13   3.64912e-10 DIIS
   @RHF iter  12:  -158.46681953166006    5.68434e-14   9.97407e-11 DIIS
  Energy and wave function converged.


  ==> Post-Iterations <==

    Orbital Energies [Eh]
    ---------------------

    Doubly Occupied:                                                      

       1A    -11.219547     2A    -11.219405     3A    -11.216553  
       4A    -11.216310     5A     -1.020303     6A     -1.017310  
       7A     -0.839468     8A     -0.835745     9A     -0.605000  
      10A     -0.599601    11A     -0.596988    12A     -0.590376  
      13A     -0.504691    14A     -0.500518    15A     -0.490353  
      16A     -0.486757    17A     -0.483241    18A     -0.480764  

    Virtual:                                                              

      19A      0.163384    20A      0.204924    21A      0.221470  
      22A      0.231647    23A      0.247724    24A      0.258991  
      25A      0.261203    26A      0.270550    27A      0.278327  
      28A      0.296380    29A      0.316122    30A      0.351732  
      31A      0.392800    32A      0.400686    33A      0.566166  
      34A      0.593910    35A      0.600984    36A      0.609223  
      37A      0.616135    38A      0.641208    39A      0.645288  
      40A      0.681073    41A      0.694587    42A      0.809957  
      43A      0.842799    44A      0.845747    45A      0.880449  
      46A      0.882890    47A      0.888877    48A      0.898623  
      49A      0.899884    50A      0.905656    51A      0.919472  
      52A      0.925535    53A      0.936303    54A      0.969872  
      55A      0.979597    56A      0.999869    57A      1.122482  
      58A      1.124771    59A      1.129513    60A      1.149794  
      61A      1.233932    62A      1.251672    63A      1.463492  
      64A      1.474011    65A      1.476679    66A      1.488536  
      67A      1.536738    68A      1.602827    69A      1.683505  
      70A      1.688327    71A      1.692538    72A      1.712871  
      73A      1.861079    74A      1.865768    75A      1.867029  
      76A      1.888026    77A      1.896216    78A      1.918165  
      79A      1.934517    80A      1.937861    81A      1.945358  
      82A      1.948461    83A      1.951673    84A      1.956135  
      85A      1.963700    86A      1.967684    87A      1.970734  
      88A      2.022880    89A      2.094363    90A      2.105709  
      91A      2.115042    92A      2.130079    93A      2.301135  
      94A      2.303473    95A      2.317443    96A      2.320433  
      97A      2.444299    98A      2.454282    99A      2.461877  
     100A      2.467737   101A      2.558126   102A      2.561917  
     103A      2.569598   104A      2.585905   105A      2.759130  
     106A      2.760186   107A      2.794993   108A      2.796305  
     109A      2.848759   110A      2.857546   111A      2.864144  
     112A      2.871557   113A      2.938576   114A      2.946791  
     115A      2.964402   116A      2.987631  

    Final Occupation by Irrep:
              A 
    DOCC [    18 ]

  @RHF Final Energy:  -158.46681953166006

   => Energetics <=

    Nuclear Repulsion Energy =            124.3972821755198055
    One-Electron Energy =                -457.8823392703510535
    Two-Electron Energy =                 175.0182375631711693
    Total Energy =                       -158.4668195316600645

Computation Completed


Properties will be evaluated at   0.000000,   0.000000,   0.000000 [a0]

Properties computed using the SCF density matrix

  Nuclear Dipole Moment: [e a0]
     X:     0.0553      Y:    -0.0041      Z:     0.0186

  Electronic Dipole Moment: [e a0]
     X:    -0.0532      Y:     0.0060      Z:    -0.0309

  Dipole Moment: [e a0]
     X:     0.0021      Y:     0.0019      Z:    -0.0123     Total:     0.0126

  Dipole Moment: [D]
     X:     0.0054      Y:     0.0048      Z:    -0.0313     Total:     0.0321


*** tstop() called on ds3 at Tue Apr 28 09:47:07 2020
Module time:
	user time   =       7.70 seconds =       0.13 minutes
	system time =       2.76 seconds =       0.05 minutes
	total time  =         10 seconds =       0.17 minutes
Total time:
	user time   =       7.70 seconds =       0.13 minutes
	system time =       2.76 seconds =       0.05 minutes
	total time  =         10 seconds =       0.17 minutes
                                     G D M A

                                 by Anthony Stone

                           version 2.2.06, 22 June 2011

               Distributed Multipoles from Gaussian wavefunctions


Starting at 9:47:7 on 28 Apr 2020   


Using SCF density matrix from file ./SSI/SSI-006VAL-020VAL-1-dimer.test.28912.fchk


                         Distributed Multipole Analysis

Standard DMA

Positions and radii in angstrom
Multipole moments in atomic units, ea_0^k for rank k

C          x =  0.566511  y = -0.873909  z = -1.635667 angstrom
           Maximum rank =  0   Radius =  0.650 angstrom
                   Q00  =  -0.247159

C          x =  1.687511  y = -1.606909  z = -0.903667 angstrom
           Maximum rank =  0   Radius =  0.650 angstrom
                   Q00  =  -0.227386

H          x = -0.371489  y = -1.424909  z = -1.543667 angstrom
           Maximum rank =  0   Radius =  0.325 angstrom
                   Q00  =   0.079143

H          x =  0.438511  y =  0.116091  z = -1.201667 angstrom
           Maximum rank =  0   Radius =  0.325 angstrom
                   Q00  =   0.079012

H          x =  0.811511  y = -0.743909  z = -2.686667 angstrom
           Maximum rank =  0   Radius =  0.325 angstrom
                   Q00  =   0.079932

H          x =  2.619511  y = -1.065909  z = -1.063667 angstrom
           Maximum rank =  0   Radius =  0.325 angstrom
                   Q00  =   0.077991

H          x =  1.802287  y = -2.630569  z = -1.289602 angstrom
           Maximum rank =  0   Radius =  0.325 angstrom
                   Q00  =   0.079480

H          x =  1.486606  y = -1.635094  z =  0.177463 angstrom
           Maximum rank =  0   Radius =  0.325 angstrom
                   Q00  =   0.078094

C          x = -1.641489  y =  0.834091  z =  0.874333 angstrom
           Maximum rank =  0   Radius =  0.650 angstrom
                   Q00  =  -0.237639

C          x = -0.617489  y =  1.647091  z =  1.663333 angstrom
           Maximum rank =  0   Radius =  0.650 angstrom
                   Q00  =  -0.236148

H          x = -1.543489  y =  0.996091  z = -0.197667 angstrom
           Maximum rank =  0   Radius =  0.325 angstrom
                   Q00  =   0.083017

H          x = -1.487489  y = -0.226909  z =  1.075333 angstrom
           Maximum rank =  0   Radius =  0.325 angstrom
                   Q00  =   0.076711

H          x = -2.649489  y =  1.096091  z =  1.195333 angstrom
           Maximum rank =  0   Radius =  0.325 angstrom
                   Q00  =   0.078732

H          x =  0.378511  y =  1.278091  z =  1.430333 angstrom
           Maximum rank =  0   Radius =  0.325 angstrom
                   Q00  =   0.076176

H          x = -0.655357  y =  2.708832  z =  1.378249 angstrom
           Maximum rank =  0   Radius =  0.325 angstrom
                   Q00  =   0.079201

H          x = -0.770624  y =  1.527746  z =  2.746064 angstrom
           Maximum rank =  0   Radius =  0.325 angstrom
                   Q00  =   0.080843

Total multipoles referred to origin at
           x =   0.000000,  y =    0.000000,  z =    0.000000 angstrom
                   Q00  =  -0.000000

Finished at 9:47:7 on 28 Apr 2020   

  DMA results are available in the Python driver through the
	  variable('DMA DISTRIBUTED MULTIPOLES')
  and
	  variable('DMA TOTAL MULTIPOLES')
  commands.


    Psi4 stopped on: Tuesday, 28 April 2020 09:47AM
    Psi4 wall time for execution: 0:00:10.34

*** Psi4 exiting successfully. Buy a developer a beer!
