
    -----------------------------------------------------------------------
          Psi4: An Open-Source Ab Initio Electronic Structure Package
                               Psi4 1.3.2 release

                         Git: Rev {HEAD} ecbda83 


    R. M. Parrish, L. A. Burns, D. G. A. Smith, A. C. Simmonett,
    A. E. DePrince III, E. G. Hohenstein, U. Bozkaya, A. Yu. Sokolov,
    R. Di Remigio, R. M. Richard, J. F. Gonthier, A. M. James,
    H. R. McAlexander, A. Kumar, M. Saitow, X. Wang, B. P. Pritchard,
    P. Verma, H. F. Schaefer III, K. Patkowski, R. A. King, E. F. Valeev,
    F. A. Evangelista, J. M. Turney, T. D. Crawford, and C. D. Sherrill,
    J. Chem. Theory Comput. 13(7) pp 3185--3197 (2017).
    (doi: 10.1021/acs.jctc.7b00174)


                         Additional Contributions by
    P. Kraus, H. Kruse, M. H. Lechner, M. C. Schieber, R. A. Shaw,
    A. Alenaizan, R. Galvelis, Z. L. Glick, S. Lehtola, and J. P. Misiewicz

    -----------------------------------------------------------------------


    Psi4 started on: Tuesday, 28 April 2020 09:51PM

    Process ID: 1324
    Host:       ds3
    PSIDATADIR: /theoryfs2/ds/metcalf/miniconda2/envs/tf2gpu/share/psi4
    Memory:     500.0 MiB
    Threads:    1
    
  ==> Input File <==

--------------------------------------------------------------------------
import numpy as np
set {scf_type pk
basis cc-pvdz
d_convergence 10
gdma_switch   0
gdma_limit    0
gdma_origin   [ 0.0,  0.0,  0.0 ]
}
molecule test {
    units Angstrom
    0 1
    --
    0 1
    C               -0.981763395129436     2.518610621568690     2.661103810130630
    C               -1.471763395129436     3.927610621568690     2.992103810130630
    H               -1.418763395129436     1.781610621568690     3.335103810130630
    H               -1.269763395129436     2.275610621568690     1.642103810130630
    H                0.105236604870564     2.461610621568690     2.723103810130630
    H               -1.079763395129436     4.606610621568690     2.238103810130630
    H               -1.085153395129436     4.272220621568689     3.962554810130630
    H               -2.569053395129436     3.998700621568690     2.961942810130630
    C               -0.495763395129436    -0.238389378431310     0.199103810130630
    C               -1.887763395129436    -0.011389378431310    -0.316896189869370
    C               -0.424763395129436    -0.464389378431310    -2.221896189869370
    C                2.066236604870565    -1.669389378431310     0.391103810130630
    C                1.330236604870564    -1.531389378431310    -0.937896189869370
    O                1.805236604870564    -2.012389378431310    -1.970896189869370
    N                0.214236604870564    -0.807389378431310    -0.955896189869370
    H               -0.032763395129436     0.708610621568690     0.480103810130630
    H               -0.526763395129436    -0.921389378431310     1.047103810130630
    H               -2.398763395129436     0.792610621568690     0.212103810130630
    H               -2.456763395129436    -0.939389378431310    -0.241896189869370
    H               -0.722763395129436    -1.385389378431310    -2.722896189869370
    H                1.379236604870564    -1.775389378431310     1.230103810130630
    H               -1.726013395129436     0.231230621568690    -1.377544189869370
    H               -1.314973395129436     0.105570621568690    -1.917483189869370
    H                0.243396604870564     0.138180621568690    -2.854734189869370
    H                2.739527604870564    -2.538639378431310     0.358315810130630
    H                2.717138604870564    -0.795589378431310     0.542078810130630

}
e, wfn = energy('scf', return_wfn=True)
gdma(wfn)
dmavals = variable('DMA DISTRIBUTED MULTIPOLES')
charges = np.array(dmavals)
print(charges)
np.save('SSI-126ILE-136PRO-1-dimer.npy', np.array(charges))--------------------------------------------------------------------------

*** tstart() called on ds3
*** at Tue Apr 28 21:51:24 2020

   => Loading Basis Set <=

    Name: CC-PVDZ
    Role: ORBITAL
    Keyword: BASIS
    atoms 1-2, 9-13  entry C          line   138 file /theoryfs2/ds/metcalf/miniconda2/envs/tf2gpu/share/psi4/basis/cc-pvdz.gbs 
    atoms 3-8, 16-26 entry H          line    22 file /theoryfs2/ds/metcalf/miniconda2/envs/tf2gpu/share/psi4/basis/cc-pvdz.gbs 
    atoms 14         entry O          line   198 file /theoryfs2/ds/metcalf/miniconda2/envs/tf2gpu/share/psi4/basis/cc-pvdz.gbs 
    atoms 15         entry N          line   168 file /theoryfs2/ds/metcalf/miniconda2/envs/tf2gpu/share/psi4/basis/cc-pvdz.gbs 


         ---------------------------------------------------------
                                   SCF
               by Justin Turney, Rob Parrish, Andy Simmonett
                          and Daniel G. A. Smith
                              RHF Reference
                        1 Threads,    500 MiB Core
         ---------------------------------------------------------

  ==> Geometry <==

    Molecular point group: c1
    Full point group: C1

    Geometry (in Angstrom), charge = 0, multiplicity = 1:

       Center              X                  Y                   Z               Mass       
    ------------   -----------------  -----------------  -----------------  -----------------
         C           -0.981763395129     2.518610621569     2.661103810131    12.000000000000
         C           -1.471763395129     3.927610621569     2.992103810131    12.000000000000
         H           -1.418763395129     1.781610621569     3.335103810131     1.007825032230
         H           -1.269763395129     2.275610621569     1.642103810131     1.007825032230
         H            0.105236604871     2.461610621569     2.723103810131     1.007825032230
         H           -1.079763395129     4.606610621569     2.238103810131     1.007825032230
         H           -1.085153395129     4.272220621569     3.962554810131     1.007825032230
         H           -2.569053395129     3.998700621569     2.961942810131     1.007825032230
         C           -0.495763395129    -0.238389378431     0.199103810131    12.000000000000
         C           -1.887763395129    -0.011389378431    -0.316896189869    12.000000000000
         C           -0.424763395129    -0.464389378431    -2.221896189869    12.000000000000
         C            2.066236604871    -1.669389378431     0.391103810131    12.000000000000
         C            1.330236604871    -1.531389378431    -0.937896189869    12.000000000000
         O            1.805236604871    -2.012389378431    -1.970896189869    15.994914619570
         N            0.214236604871    -0.807389378431    -0.955896189869    14.003074004430
         H           -0.032763395129     0.708610621569     0.480103810131     1.007825032230
         H           -0.526763395129    -0.921389378431     1.047103810131     1.007825032230
         H           -2.398763395129     0.792610621569     0.212103810131     1.007825032230
         H           -2.456763395129    -0.939389378431    -0.241896189869     1.007825032230
         H           -0.722763395129    -1.385389378431    -2.722896189869     1.007825032230
         H            1.379236604871    -1.775389378431     1.230103810131     1.007825032230
         H           -1.726013395129     0.231230621569    -1.377544189869     1.007825032230
         H           -1.314973395129     0.105570621569    -1.917483189869     1.007825032230
         H            0.243396604871     0.138180621569    -2.854734189869     1.007825032230
         H            2.739527604871    -2.538639378431     0.358315810131     1.007825032230
         H            2.717138604871    -0.795589378431     0.542078810131     1.007825032230

  Running in c1 symmetry.

  Rotational constants: A =      0.07837  B =      0.01715  C =      0.01503 [cm^-1]
  Rotational constants: A =   2349.39068  B =    514.13767  C =    450.57427 [MHz]
  Nuclear repulsion =  465.352986322747824

  Charge       = 0
  Multiplicity = 1
  Electrons    = 74
  Nalpha       = 37
  Nbeta        = 37

  ==> Algorithm <==

  SCF Algorithm Type is PK.
  DIIS enabled.
  MOM disabled.
  Fractional occupation disabled.
  Guess Type is SAD.
  Energy threshold   = 1.00e-06
  Density threshold  = 1.00e-10
  Integral threshold = 0.00e+00

  ==> Primary Basis <==

  Basis Set: CC-PVDZ
    Blend: CC-PVDZ
    Number of shells: 105
    Number of basis function: 211
    Number of Cartesian functions: 220
    Spherical Harmonics?: true
    Max angular momentum: 2

  ==> Pre-Iterations <==

   -------------------------------------------------------
    Irrep   Nso     Nmo     Nalpha   Nbeta   Ndocc  Nsocc
   -------------------------------------------------------
     A        211     211       0       0       0       0
   -------------------------------------------------------
    Total     211     211      37      37      37       0
   -------------------------------------------------------

  ==> Integral Setup <==

  Using integral reordering PK algorithm.
  Sizing the integral batches needed.
  Building batch lookup table.
   Calculation information:
      Number of atoms:                  26
      Number of AO shells:             105
      Number of primitives:            283
      Number of atomic orbitals:       220
      Number of basis functions:       211

      Integral cutoff                 1.00e-12
      Number of threads:                 1

	Batch   1 pq = [       0,    9405] index = [             0,44231715] size =     44231715
	Batch   2 pq = [    9405,   13301] index = [      44231715,88464951] size =     44233236
	Batch   3 pq = [   13301,   16290] index = [      88464951,132690195] size =     44225244
	Batch   4 pq = [   16290,   18810] index = [     132690195,176917455] size =     44227260
	Batch   5 pq = [   18810,   21030] index = [     176917455,221140965] size =     44223510
	Batch   6 pq = [   21030,   22366] index = [     221140965,250130161] size =     28989196
  Task number: 23
  Buffer size: 11059200
  Buffer per thread: 2
  We computed 12606755 shell quartets total.
  Whereas there are 15487395 unique shell quartets.

  ==> DiskJK: Disk-Based J/K Matrices <==

    J tasked:                  Yes
    K tasked:                  Yes
    wK tasked:                  No
    Memory [MiB]:              375
    Schwarz Cutoff:          1E-12

    OpenMP threads:              1

  Minimum eigenvalue in the overlap matrix is 1.5237670933E-03.
  Using Symmetric Orthogonalization.

  SCF Guess: Superposition of Atomic Densities via on-the-fly atomic UHF.

  ==> Iterations <==

                        Total Energy        Delta E     RMS |[F,P]|

   @RHF iter SAD:  -403.41453980201402   -4.03415e+02   0.00000e+00 
   @RHF iter   1:  -403.84754911826423   -4.33009e-01   3.32614e-03 DIIS
   @RHF iter   2:  -404.07477212835170   -2.27223e-01   1.83960e-03 DIIS
   @RHF iter   3:  -404.13418215101001   -5.94100e-02   4.41258e-04 DIIS
   @RHF iter   4:  -404.13938457293472   -5.20242e-03   1.72515e-04 DIIS
   @RHF iter   5:  -404.14021916054338   -8.34588e-04   2.95740e-05 DIIS
   @RHF iter   6:  -404.14026874652268   -4.95860e-05   1.50726e-05 DIIS
   @RHF iter   7:  -404.14027865007267   -9.90355e-06   5.52294e-06 DIIS
   @RHF iter   8:  -404.14028074146029   -2.09139e-06   2.15165e-06 DIIS
   @RHF iter   9:  -404.14028105022396   -3.08764e-07   5.79506e-07 DIIS
   @RHF iter  10:  -404.14028106840067   -1.81767e-08   1.66186e-07 DIIS
   @RHF iter  11:  -404.14028106992509   -1.52443e-09   4.95937e-08 DIIS
   @RHF iter  12:  -404.14028107003764   -1.12550e-10   1.59328e-08 DIIS
   @RHF iter  13:  -404.14028107005157   -1.39266e-11   4.69615e-09 DIIS
   @RHF iter  14:  -404.14028107005242   -8.52651e-13   1.20439e-09 DIIS
   @RHF iter  15:  -404.14028107005453   -2.10321e-12   3.13359e-10 DIIS
   @RHF iter  16:  -404.14028107004975    4.77485e-12   1.33549e-10 DIIS
   @RHF iter  17:  -404.14028107005322   -3.46745e-12   3.15965e-11 DIIS
  Energy and wave function converged.


  ==> Post-Iterations <==

    Orbital Energies [Eh]
    ---------------------

    Doubly Occupied:                                                      

       1A    -20.494269     2A    -15.580614     3A    -11.337681  
       4A    -11.277004     5A    -11.245980     6A    -11.236164  
       7A    -11.228036     8A    -11.227411     9A    -11.221022  
      10A     -1.359663    11A     -1.252992    12A     -1.067230  
      13A     -1.028142    14A     -1.007166    15A     -0.966501  
      16A     -0.856165    17A     -0.848713    18A     -0.752385  
      19A     -0.726923    20A     -0.674519    21A     -0.650238  
      22A     -0.618654    23A     -0.608070    24A     -0.606333  
      25A     -0.592683    26A     -0.575700    27A     -0.546535  
      28A     -0.537363    29A     -0.532988    30A     -0.524079  
      31A     -0.512482    32A     -0.496651    33A     -0.493214  
      34A     -0.482369    35A     -0.402555    36A     -0.396954  
      37A     -0.361458  

    Virtual:                                                              

      38A      0.159697    39A      0.180571    40A      0.194125  
      41A      0.198871    42A      0.217190    43A      0.224752  
      44A      0.234773    45A      0.240801    46A      0.253886  
      47A      0.259141    48A      0.264537    49A      0.275287  
      50A      0.275978    51A      0.283076    52A      0.291649  
      53A      0.322757    54A      0.331224    55A      0.335597  
      56A      0.350299    57A      0.378243    58A      0.406856  
      59A      0.422945    60A      0.454958    61A      0.503972  
      62A      0.523653    63A      0.540445    64A      0.582524  
      65A      0.587485    66A      0.593174    67A      0.598949  
      68A      0.614761    69A      0.643908    70A      0.664707  
      71A      0.675993    72A      0.693901    73A      0.697471  
      74A      0.708944    75A      0.732625    76A      0.739789  
      77A      0.773609    78A      0.791582    79A      0.827651  
      80A      0.853576    81A      0.856282    82A      0.859125  
      83A      0.870454    84A      0.877416    85A      0.882955  
      86A      0.884237    87A      0.886857    88A      0.888302  
      89A      0.897217    90A      0.900265    91A      0.912183  
      92A      0.918884    93A      0.929057    94A      0.933323  
      95A      0.952625    96A      0.959736    97A      0.987077  
      98A      0.991436    99A      1.037201   100A      1.051820  
     101A      1.069946   102A      1.095440   103A      1.118673  
     104A      1.126492   105A      1.141074   106A      1.174729  
     107A      1.192161   108A      1.239689   109A      1.245077  
     110A      1.254305   111A      1.352874   112A      1.372981  
     113A      1.392829   114A      1.422466   115A      1.437824  
     116A      1.455914   117A      1.462417   118A      1.463966  
     119A      1.492042   120A      1.531461   121A      1.556061  
     122A      1.580432   123A      1.595418   124A      1.604417  
     125A      1.635840   126A      1.652568   127A      1.678008  
     128A      1.681963   129A      1.688978   130A      1.704051  
     131A      1.724435   132A      1.762906   133A      1.818054  
     134A      1.823683   135A      1.847042   136A      1.860322  
     137A      1.872611   138A      1.878821   139A      1.886865  
     140A      1.894594   141A      1.910226   142A      1.919781  
     143A      1.924328   144A      1.934171   145A      1.940360  
     146A      1.944273   147A      1.949362   148A      1.957174  
     149A      1.969625   150A      1.978950   151A      1.998834  
     152A      2.029409   153A      2.040282   154A      2.056334  
     155A      2.064070   156A      2.077664   157A      2.093495  
     158A      2.111352   159A      2.116632   160A      2.132081  
     161A      2.149880   162A      2.182364   163A      2.193663  
     164A      2.211212   165A      2.267665   166A      2.282354  
     167A      2.297646   168A      2.303196   169A      2.320111  
     170A      2.328620   171A      2.362919   172A      2.423984  
     173A      2.428489   174A      2.443339   175A      2.464480  
     176A      2.492647   177A      2.510958   178A      2.523130  
     179A      2.544394   180A      2.550129   181A      2.566555  
     182A      2.591038   183A      2.625815   184A      2.710862  
     185A      2.738923   186A      2.750949   187A      2.761472  
     188A      2.779482   189A      2.797154   190A      2.798542  
     191A      2.809458   192A      2.824286   193A      2.835394  
     194A      2.850210   195A      2.864300   196A      2.876098  
     197A      2.925302   198A      2.942548   199A      2.973422  
     200A      2.977652   201A      3.015871   202A      3.067478  
     203A      3.105162   204A      3.176449   205A      3.224061  
     206A      3.327133   207A      3.370337   208A      3.523193  
     209A      3.837385   210A      3.906059   211A      4.864480  

    Final Occupation by Irrep:
              A 
    DOCC [    37 ]

  @RHF Final Energy:  -404.14028107005322

   => Energetics <=

    Nuclear Repulsion Energy =            465.3529863227478245
    One-Electron Energy =               -1470.3327255664255517
    Two-Electron Energy =                 600.8394581736245073
    Total Energy =                       -404.1402810700532200

Computation Completed


Properties will be evaluated at   0.000000,   0.000000,   0.000000 [a0]

Properties computed using the SCF density matrix

  Nuclear Dipole Moment: [e a0]
     X:    -8.8199      Y:    12.1955      Z:    10.8850

  Electronic Dipole Moment: [e a0]
     X:     7.7795      Y:   -11.2710      Z:    -9.7354

  Dipole Moment: [e a0]
     X:    -1.0404      Y:     0.9245      Z:     1.1496     Total:     1.8052

  Dipole Moment: [D]
     X:    -2.6445      Y:     2.3498      Z:     2.9219     Total:     4.5883


*** tstop() called on ds3 at Tue Apr 28 21:53:17 2020
Module time:
	user time   =      78.70 seconds =       1.31 minutes
	system time =      38.65 seconds =       0.64 minutes
	total time  =        113 seconds =       1.88 minutes
Total time:
	user time   =      78.70 seconds =       1.31 minutes
	system time =      38.65 seconds =       0.64 minutes
	total time  =        113 seconds =       1.88 minutes
                                     G D M A

                                 by Anthony Stone

                           version 2.2.06, 22 June 2011

               Distributed Multipoles from Gaussian wavefunctions


Starting at 21:53:17 on 28 Apr 2020 


Using SCF density matrix from file ./SSI/SSI-126ILE-136PRO-1-dimer.test.1324.fchk


                         Distributed Multipole Analysis

Standard DMA

Positions and radii in angstrom
Multipole moments in atomic units, ea_0^k for rank k

C          x = -0.981763  y =  2.518611  z =  2.661104 angstrom
           Maximum rank =  0   Radius =  0.650 angstrom
                   Q00  =  -0.244294

C          x = -1.471763  y =  3.927611  z =  2.992104 angstrom
           Maximum rank =  0   Radius =  0.650 angstrom
                   Q00  =  -0.235975

H          x = -1.418763  y =  1.781611  z =  3.335104 angstrom
           Maximum rank =  0   Radius =  0.325 angstrom
                   Q00  =   0.081924

H          x = -1.269763  y =  2.275611  z =  1.642104 angstrom
           Maximum rank =  0   Radius =  0.325 angstrom
                   Q00  =   0.073034

H          x =  0.105237  y =  2.461611  z =  2.723104 angstrom
           Maximum rank =  0   Radius =  0.325 angstrom
                   Q00  =   0.081279

H          x = -1.079763  y =  4.606611  z =  2.238104 angstrom
           Maximum rank =  0   Radius =  0.325 angstrom
                   Q00  =   0.077480

H          x = -1.085153  y =  4.272221  z =  3.962555 angstrom
           Maximum rank =  0   Radius =  0.325 angstrom
                   Q00  =   0.082755

H          x = -2.569053  y =  3.998701  z =  2.961943 angstrom
           Maximum rank =  0   Radius =  0.325 angstrom
                   Q00  =   0.082597

C          x = -0.495763  y = -0.238389  z =  0.199104 angstrom
           Maximum rank =  0   Radius =  0.650 angstrom
                   Q00  =   0.029628

C          x = -1.887763  y = -0.011389  z = -0.316896 angstrom
           Maximum rank =  0   Radius =  0.650 angstrom
                   Q00  =  -0.227546

C          x = -0.424763  y = -0.464389  z = -2.221896 angstrom
           Maximum rank =  0   Radius =  0.650 angstrom
                   Q00  =  -0.104109

C          x =  2.066237  y = -1.669389  z =  0.391104 angstrom
           Maximum rank =  0   Radius =  0.650 angstrom
                   Q00  =  -0.274960

C          x =  1.330237  y = -1.531389  z = -0.937896 angstrom
           Maximum rank =  0   Radius =  0.650 angstrom
                   Q00  =   0.759671

O          x =  1.805237  y = -2.012389  z = -1.970896 angstrom
           Maximum rank =  0   Radius =  0.650 angstrom
                   Q00  =  -0.794170

N          x =  0.214237  y = -0.807389  z = -0.955896 angstrom
           Maximum rank =  0   Radius =  0.650 angstrom
                   Q00  =  -0.479997

H          x = -0.032763  y =  0.708611  z =  0.480104 angstrom
           Maximum rank =  0   Radius =  0.325 angstrom
                   Q00  =   0.058984

H          x = -0.526763  y = -0.921389  z =  1.047104 angstrom
           Maximum rank =  0   Radius =  0.325 angstrom
                   Q00  =   0.085892

H          x = -2.398763  y =  0.792611  z =  0.212104 angstrom
           Maximum rank =  0   Radius =  0.325 angstrom
                   Q00  =   0.092636

H          x = -2.456763  y = -0.939389  z = -0.241896 angstrom
           Maximum rank =  0   Radius =  0.325 angstrom
                   Q00  =   0.096308

H          x = -0.722763  y = -1.385389  z = -2.722896 angstrom
           Maximum rank =  0   Radius =  0.325 angstrom
                   Q00  =   0.112885

H          x =  1.379237  y = -1.775389  z =  1.230104 angstrom
           Maximum rank =  0   Radius =  0.325 angstrom
                   Q00  =   0.093860

H          x = -1.726013  y =  0.231231  z = -1.377544 angstrom
           Maximum rank =  0   Radius =  0.325 angstrom
                   Q00  =   0.098568

H          x = -1.314973  y =  0.105571  z = -1.917483 angstrom
           Maximum rank =  0   Radius =  0.325 angstrom
                   Q00  =   0.103010

H          x =  0.243397  y =  0.138181  z = -2.854734 angstrom
           Maximum rank =  0   Radius =  0.325 angstrom
                   Q00  =   0.098899

H          x =  2.739528  y = -2.538639  z =  0.358316 angstrom
           Maximum rank =  0   Radius =  0.325 angstrom
                   Q00  =   0.128085

H          x =  2.717139  y = -0.795589  z =  0.542079 angstrom
           Maximum rank =  0   Radius =  0.325 angstrom
                   Q00  =   0.123555

Total multipoles referred to origin at
           x =   0.000000,  y =    0.000000,  z =    0.000000 angstrom
                   Q00  =  -0.000000

Finished at 21:53:17 on 28 Apr 2020 

  DMA results are available in the Python driver through the
	  variable('DMA DISTRIBUTED MULTIPOLES')
  and
	  variable('DMA TOTAL MULTIPOLES')
  commands.


    Psi4 stopped on: Tuesday, 28 April 2020 09:53PM
    Psi4 wall time for execution: 0:01:53.17

*** Psi4 exiting successfully. Buy a developer a beer!
