
    -----------------------------------------------------------------------
          Psi4: An Open-Source Ab Initio Electronic Structure Package
                               Psi4 1.3.2 release

                         Git: Rev {HEAD} ecbda83 


    R. M. Parrish, L. A. Burns, D. G. A. Smith, A. C. Simmonett,
    A. E. DePrince III, E. G. Hohenstein, U. Bozkaya, A. Yu. Sokolov,
    R. Di Remigio, R. M. Richard, J. F. Gonthier, A. M. James,
    H. R. McAlexander, A. Kumar, M. Saitow, X. Wang, B. P. Pritchard,
    P. Verma, H. F. Schaefer III, K. Patkowski, R. A. King, E. F. Valeev,
    F. A. Evangelista, J. M. Turney, T. D. Crawford, and C. D. Sherrill,
    J. Chem. Theory Comput. 13(7) pp 3185--3197 (2017).
    (doi: 10.1021/acs.jctc.7b00174)


                         Additional Contributions by
    P. Kraus, H. Kruse, M. H. Lechner, M. C. Schieber, R. A. Shaw,
    A. Alenaizan, R. Galvelis, Z. L. Glick, S. Lehtola, and J. P. Misiewicz

    -----------------------------------------------------------------------


    Psi4 started on: Tuesday, 28 April 2020 07:41AM

    Process ID: 6593
    Host:       ds3
    PSIDATADIR: /theoryfs2/ds/metcalf/miniconda2/envs/tf2gpu/share/psi4
    Memory:     500.0 MiB
    Threads:    1
    
  ==> Input File <==

--------------------------------------------------------------------------
import numpy as np
set {scf_type pk
basis cc-pvdz
d_convergence 10
gdma_switch   0
gdma_limit    0
gdma_origin   [ 0.0,  0.0,  0.0 ]
}
molecule test {
    units Angstrom
    -1 1
    --
    -1 1
    C               -1.125659624813318     1.680254926078435    -1.599190881614343
    C               -0.283659624813318     1.417254926078434    -0.352190881614343
    O                0.879340375186682     0.970254926078434    -0.463190881614343
    O               -0.803659624813318     1.638254926078434     0.755809118385657
    H               -0.717659624813318     2.549254926078434    -2.119190881614343
    H               -2.154659624813318     1.911254926078434    -1.315190881614343
    H               -1.124219624813318     0.821934926078434    -2.287140881614343
    C                0.347340375186682    -3.296745073921565     0.859809118385657
    O                0.906340375186682    -2.004745073921566     0.716809118385657
    H                0.445340375186682    -1.588745073921566    -0.033190881614343
    H               -0.732659624813318    -3.254745073921566     0.706809118385657
    H                0.539340375186682    -3.647745073921565     1.875809118385657
    H                0.803930375186682    -4.001135073921565     0.148919118385657

}
e, wfn = energy('scf', return_wfn=True)
gdma(wfn)
dmavals = variable('DMA DISTRIBUTED MULTIPOLES')
charges = np.array(dmavals)
print(charges)
np.save('SSI-102ASP-106SER-1-dimer.npy', np.array(charges))--------------------------------------------------------------------------

*** tstart() called on ds3
*** at Tue Apr 28 07:41:40 2020

   => Loading Basis Set <=

    Name: CC-PVDZ
    Role: ORBITAL
    Keyword: BASIS
    atoms 1-2, 8     entry C          line   138 file /theoryfs2/ds/metcalf/miniconda2/envs/tf2gpu/share/psi4/basis/cc-pvdz.gbs 
    atoms 3-4, 9     entry O          line   198 file /theoryfs2/ds/metcalf/miniconda2/envs/tf2gpu/share/psi4/basis/cc-pvdz.gbs 
    atoms 5-7, 10-13 entry H          line    22 file /theoryfs2/ds/metcalf/miniconda2/envs/tf2gpu/share/psi4/basis/cc-pvdz.gbs 


         ---------------------------------------------------------
                                   SCF
               by Justin Turney, Rob Parrish, Andy Simmonett
                          and Daniel G. A. Smith
                              RHF Reference
                        1 Threads,    500 MiB Core
         ---------------------------------------------------------

  ==> Geometry <==

    Molecular point group: c1
    Full point group: C1

    Geometry (in Angstrom), charge = -1, multiplicity = 1:

       Center              X                  Y                   Z               Mass       
    ------------   -----------------  -----------------  -----------------  -----------------
         C           -1.125659624813     1.680254926078    -1.599190881614    12.000000000000
         C           -0.283659624813     1.417254926078    -0.352190881614    12.000000000000
         O            0.879340375187     0.970254926078    -0.463190881614    15.994914619570
         O           -0.803659624813     1.638254926078     0.755809118386    15.994914619570
         H           -0.717659624813     2.549254926078    -2.119190881614     1.007825032230
         H           -2.154659624813     1.911254926078    -1.315190881614     1.007825032230
         H           -1.124219624813     0.821934926078    -2.287140881614     1.007825032230
         C            0.347340375187    -3.296745073922     0.859809118386    12.000000000000
         O            0.906340375187    -2.004745073922     0.716809118386    15.994914619570
         H            0.445340375187    -1.588745073922    -0.033190881614     1.007825032230
         H           -0.732659624813    -3.254745073922     0.706809118386     1.007825032230
         H            0.539340375187    -3.647745073922     1.875809118386     1.007825032230
         H            0.803930375187    -4.001135073922     0.148919118386     1.007825032230

  Running in c1 symmetry.

  Rotational constants: A =      0.20434  B =      0.03675  C =      0.03620 [cm^-1]
  Rotational constants: A =   6125.85917  B =   1101.82129  C =   1085.31135 [MHz]
  Nuclear repulsion =  220.027737668987527

  Charge       = -1
  Multiplicity = 1
  Electrons    = 50
  Nalpha       = 25
  Nbeta        = 25

  ==> Algorithm <==

  SCF Algorithm Type is PK.
  DIIS enabled.
  MOM disabled.
  Fractional occupation disabled.
  Guess Type is SAD.
  Energy threshold   = 1.00e-06
  Density threshold  = 1.00e-10
  Integral threshold = 0.00e+00

  ==> Primary Basis <==

  Basis Set: CC-PVDZ
    Blend: CC-PVDZ
    Number of shells: 57
    Number of basis function: 119
    Number of Cartesian functions: 125
    Spherical Harmonics?: true
    Max angular momentum: 2

  ==> Pre-Iterations <==

   -------------------------------------------------------
    Irrep   Nso     Nmo     Nalpha   Nbeta   Ndocc  Nsocc
   -------------------------------------------------------
     A        119     119       0       0       0       0
   -------------------------------------------------------
    Total     119     119      25      25      25       0
   -------------------------------------------------------

  ==> Integral Setup <==

  Using integral reordering PK algorithm.
  Sizing the integral batches needed.
  Building batch lookup table.
   Calculation information:
      Number of atoms:                  13
      Number of AO shells:              57
      Number of primitives:            167
      Number of atomic orbitals:       125
      Number of basis functions:       119

      Integral cutoff                 1.00e-12
      Number of threads:                 1

	Batch   1 pq = [       0,    7140] index = [             0,25493370] size =     25493370
  Task number: 3
  Buffer size: 11059200
  Buffer per thread: 2
  We computed 986427 shell quartets total.
  Whereas there are 1367031 unique shell quartets.

  ==> DiskJK: Disk-Based J/K Matrices <==

    J tasked:                  Yes
    K tasked:                  Yes
    wK tasked:                  No
    Memory [MiB]:              375
    Schwarz Cutoff:          1E-12

    OpenMP threads:              1

  Minimum eigenvalue in the overlap matrix is 5.4928435428E-03.
  Using Symmetric Orthogonalization.

  SCF Guess: Superposition of Atomic Densities via on-the-fly atomic UHF.

  ==> Iterations <==

                        Total Energy        Delta E     RMS |[F,P]|

   @RHF iter SAD:  -340.58331697768989   -3.40583e+02   0.00000e+00 
   @RHF iter   1:  -342.03660755768334   -1.45329e+00   6.20129e-03 DIIS
   @RHF iter   2:  -342.22130189917692   -1.84694e-01   3.62653e-03 DIIS
   @RHF iter   3:  -342.28571486156233   -6.44130e-02   4.80173e-04 DIIS
   @RHF iter   4:  -342.28789281687534   -2.17796e-03   1.67369e-04 DIIS
   @RHF iter   5:  -342.28818662479500   -2.93808e-04   3.15890e-05 DIIS
   @RHF iter   6:  -342.28819787535474   -1.12506e-05   9.87635e-06 DIIS
   @RHF iter   7:  -342.28819882674645   -9.51392e-07   3.42732e-06 DIIS
   @RHF iter   8:  -342.28819895736359   -1.30617e-07   9.00250e-07 DIIS
   @RHF iter   9:  -342.28819897215942   -1.47958e-08   3.42014e-07 DIIS
   @RHF iter  10:  -342.28819897413661   -1.97718e-09   1.91648e-07 DIIS
   @RHF iter  11:  -342.28819897468901   -5.52404e-10   4.70635e-08 DIIS
   @RHF iter  12:  -342.28819897474062   -5.16138e-11   1.95316e-08 DIIS
   @RHF iter  13:  -342.28819897474881   -8.18545e-12   4.95463e-09 DIIS
   @RHF iter  14:  -342.28819897474943   -6.25278e-13   1.33741e-09 DIIS
   @RHF iter  15:  -342.28819897474784    1.59162e-12   5.29942e-10 DIIS
   @RHF iter  16:  -342.28819897474767    1.70530e-13   1.35481e-10 DIIS
   @RHF iter  17:  -342.28819897474665    1.02318e-12   4.79933e-11 DIIS
  Energy and wave function converged.


  ==> Post-Iterations <==

    Orbital Energies [Eh]
    ---------------------

    Doubly Occupied:                                                      

       1A    -20.409245     2A    -20.252622     3A    -20.252233  
       4A    -11.158684     5A    -11.111125     6A    -11.051659  
       7A     -1.210387     8A     -1.146663     9A     -1.030198  
      10A     -0.798083    11A     -0.795466    12A     -0.548622  
      13A     -0.496981    14A     -0.494829    15A     -0.458584  
      16A     -0.410943    17A     -0.405763    18A     -0.399031  
      19A     -0.365619    20A     -0.338597    21A     -0.308225  
      22A     -0.301959    23A     -0.179029    24A     -0.164813  
      25A     -0.154573  

    Virtual:                                                              

      26A      0.297320    27A      0.341489    28A      0.366345  
      29A      0.368472    30A      0.388242    31A      0.406416  
      32A      0.418551    33A      0.485812    34A      0.502442  
      35A      0.573002    36A      0.703492    37A      0.713159  
      38A      0.752425    39A      0.758330    40A      0.822590  
      41A      0.855539    42A      0.868525    43A      0.933154  
      44A      0.966259    45A      0.971835    46A      0.986501  
      47A      1.008872    48A      1.032298    49A      1.035367  
      50A      1.042963    51A      1.060753    52A      1.077086  
      53A      1.143053    54A      1.222631    55A      1.245332  
      56A      1.265537    57A      1.288169    58A      1.329427  
      59A      1.356018    60A      1.408540    61A      1.436085  
      62A      1.480086    63A      1.538864    64A      1.564254  
      65A      1.578185    66A      1.593290    67A      1.617293  
      68A      1.660525    69A      1.695106    70A      1.747001  
      71A      1.748913    72A      1.779266    73A      1.816404  
      74A      1.839773    75A      1.847898    76A      1.967034  
      77A      2.017194    78A      2.049732    79A      2.056033  
      80A      2.068071    81A      2.081537    82A      2.095917  
      83A      2.117465    84A      2.174592    85A      2.216103  
      86A      2.250075    87A      2.274291    88A      2.343298  
      89A      2.408635    90A      2.423752    91A      2.434656  
      92A      2.498112    93A      2.510590    94A      2.580338  
      95A      2.639277    96A      2.649467    97A      2.721533  
      98A      2.795110    99A      2.870211   100A      2.875323  
     101A      2.881254   102A      2.913639   103A      2.954818  
     104A      2.988124   105A      3.247926   106A      3.285098  
     107A      3.300712   108A      3.369453   109A      3.451828  
     110A      3.524055   111A      3.589006   112A      3.649355  
     113A      3.727178   114A      3.786246   115A      3.834387  
     116A      4.076505   117A      4.083281   118A      4.207633  
     119A      4.231224  

    Final Occupation by Irrep:
              A 
    DOCC [    25 ]

  @RHF Final Energy:  -342.28819897474665

   => Energetics <=

    Nuclear Repulsion Energy =            220.0277376689875268
    One-Electron Energy =                -916.1440057406756523
    Two-Electron Energy =                 353.8280690969415332
    Total Energy =                       -342.2881989747466491

Computation Completed


Properties will be evaluated at   0.000000,   0.000000,   0.000000 [a0]

Properties computed using the SCF density matrix

  Nuclear Dipole Moment: [e a0]
     X:    -2.7520      Y:    -6.7562      Z:    -2.8293

  Electronic Dipole Moment: [e a0]
     X:     2.0298      Y:     4.4490      Z:     1.9391

  Dipole Moment: [e a0]
     X:    -0.7222      Y:    -2.3072      Z:    -0.8902     Total:     2.5763

  Dipole Moment: [D]
     X:    -1.8357      Y:    -5.8642      Z:    -2.2627     Total:     6.5482


*** tstop() called on ds3 at Tue Apr 28 07:41:51 2020
Module time:
	user time   =       7.72 seconds =       0.13 minutes
	system time =       3.77 seconds =       0.06 minutes
	total time  =         11 seconds =       0.18 minutes
Total time:
	user time   =       7.72 seconds =       0.13 minutes
	system time =       3.77 seconds =       0.06 minutes
	total time  =         11 seconds =       0.18 minutes
                                     G D M A

                                 by Anthony Stone

                           version 2.2.06, 22 June 2011

               Distributed Multipoles from Gaussian wavefunctions


Starting at 7:41:51 on 28 Apr 2020  


Using SCF density matrix from file ./SSI/SSI-102ASP-106SER-1-dimer.test.6593.fchk


                         Distributed Multipole Analysis

Standard DMA

Positions and radii in angstrom
Multipole moments in atomic units, ea_0^k for rank k

C          x = -1.125660  y =  1.680255  z = -1.599191 angstrom
           Maximum rank =  0   Radius =  0.650 angstrom
                   Q00  =  -0.284385

C          x = -0.283660  y =  1.417255  z = -0.352191 angstrom
           Maximum rank =  0   Radius =  0.650 angstrom
                   Q00  =   0.978306

O          x =  0.879340  y =  0.970255  z = -0.463191 angstrom
           Maximum rank =  0   Radius =  0.650 angstrom
                   Q00  =  -0.945048

O          x = -0.803660  y =  1.638255  z =  0.755809 angstrom
           Maximum rank =  0   Radius =  0.650 angstrom
                   Q00  =  -0.921646

H          x = -0.717660  y =  2.549255  z = -2.119191 angstrom
           Maximum rank =  0   Radius =  0.325 angstrom
                   Q00  =   0.073294

H          x = -2.154660  y =  1.911255  z = -1.315191 angstrom
           Maximum rank =  0   Radius =  0.325 angstrom
                   Q00  =   0.052144

H          x = -1.124220  y =  0.821935  z = -2.287141 angstrom
           Maximum rank =  0   Radius =  0.325 angstrom
                   Q00  =   0.052537

C          x =  0.347340  y = -3.296745  z =  0.859809 angstrom
           Maximum rank =  0   Radius =  0.650 angstrom
                   Q00  =  -0.013947

O          x =  0.906340  y = -2.004745  z =  0.716809 angstrom
           Maximum rank =  0   Radius =  0.650 angstrom
                   Q00  =  -0.581692

H          x =  0.445340  y = -1.588745  z = -0.033191 angstrom
           Maximum rank =  0   Radius =  0.325 angstrom
                   Q00  =   0.421902

H          x = -0.732660  y = -3.254745  z =  0.706809 angstrom
           Maximum rank =  0   Radius =  0.325 angstrom
                   Q00  =   0.052610

H          x =  0.539340  y = -3.647745  z =  1.875809 angstrom
           Maximum rank =  0   Radius =  0.325 angstrom
                   Q00  =   0.083157

H          x =  0.803930  y = -4.001135  z =  0.148919 angstrom
           Maximum rank =  0   Radius =  0.325 angstrom
                   Q00  =   0.032768

Total multipoles referred to origin at
           x =   0.000000,  y =    0.000000,  z =    0.000000 angstrom
                   Q00  =  -1.000000

Finished at 7:41:51 on 28 Apr 2020  

  DMA results are available in the Python driver through the
	  variable('DMA DISTRIBUTED MULTIPOLES')
  and
	  variable('DMA TOTAL MULTIPOLES')
  commands.


    Psi4 stopped on: Tuesday, 28 April 2020 07:41AM
    Psi4 wall time for execution: 0:00:11.77

*** Psi4 exiting successfully. Buy a developer a beer!
