
    -----------------------------------------------------------------------
          Psi4: An Open-Source Ab Initio Electronic Structure Package
                               Psi4 1.3.2 release

                         Git: Rev {HEAD} ecbda83 


    R. M. Parrish, L. A. Burns, D. G. A. Smith, A. C. Simmonett,
    A. E. DePrince III, E. G. Hohenstein, U. Bozkaya, A. Yu. Sokolov,
    R. Di Remigio, R. M. Richard, J. F. Gonthier, A. M. James,
    H. R. McAlexander, A. Kumar, M. Saitow, X. Wang, B. P. Pritchard,
    P. Verma, H. F. Schaefer III, K. Patkowski, R. A. King, E. F. Valeev,
    F. A. Evangelista, J. M. Turney, T. D. Crawford, and C. D. Sherrill,
    J. Chem. Theory Comput. 13(7) pp 3185--3197 (2017).
    (doi: 10.1021/acs.jctc.7b00174)


                         Additional Contributions by
    P. Kraus, H. Kruse, M. H. Lechner, M. C. Schieber, R. A. Shaw,
    A. Alenaizan, R. Galvelis, Z. L. Glick, S. Lehtola, and J. P. Misiewicz

    -----------------------------------------------------------------------


    Psi4 started on: Tuesday, 28 April 2020 11:23AM

    Process ID: 31055
    Host:       ds3
    PSIDATADIR: /theoryfs2/ds/metcalf/miniconda2/envs/tf2gpu/share/psi4
    Memory:     500.0 MiB
    Threads:    1
    
  ==> Input File <==

--------------------------------------------------------------------------
import numpy as np
set {scf_type pk
basis cc-pvdz
d_convergence 10
gdma_switch   0
gdma_limit    0
gdma_origin   [ 0.0,  0.0,  0.0 ]
}
molecule test {
    units Angstrom
    0 1
    --
    0 1
    C                2.098323785028033    -0.229321892073649     1.221190324738102
    C                0.824323785028033     0.269678107926351     1.870190324738102
    O                0.232323785028033    -0.442321892073649     2.697190324738102
    N                0.369323785028033     1.444678107926351     1.484190324738101
    H                2.867323785028033     0.524678107926351     1.358190324738102
    H                1.940323785028033    -0.359321892073649     0.152190324738102
    H               -0.475676214971967     1.838678107926351     1.865190324738102
    H                0.918323785028033     1.951678107926351     0.798190324738102
    H                2.436483785028033    -1.169548892073649     1.681209324738101
    C               -0.777676214971967    -0.309321892073649    -1.501809675261899
    C               -1.211676214971967    -1.710321892073649    -1.955809675261899
    C                0.342323785028033     0.164678107926351    -2.401809675261898
    C               -1.907676214971967     0.718678107926351    -1.457809675261899
    H               -0.377676214971967    -0.391321892073649    -0.495809675261898
    H               -0.368676214971967    -2.396321892073648    -1.857809675261899
    H               -1.471676214971967    -1.654321892073649    -3.013809675261899
    H               -0.005676214971967     0.234678107926351    -3.430809675261898
    H                0.670323785028033     1.152678107926352    -2.085809675261899
    H                1.185323785028033    -0.523321892073649    -2.344809675261899
    H               -2.616676214971967     0.454678107926351    -0.675809675261899
    H               -1.494676214971967     1.698678107926351    -1.224809675261899
    H               -2.420676214971967     0.754678107926351    -2.418809675261898
    H               -2.079556214971968    -2.120093892073649    -1.418343675261899

}
e, wfn = energy('scf', return_wfn=True)
gdma(wfn)
dmavals = variable('DMA DISTRIBUTED MULTIPOLES')
charges = np.array(dmavals)
print(charges)
np.save('SSI-081ASN-084LEU-1-dimer.npy', np.array(charges))--------------------------------------------------------------------------

*** tstart() called on ds3
*** at Tue Apr 28 11:23:58 2020

   => Loading Basis Set <=

    Name: CC-PVDZ
    Role: ORBITAL
    Keyword: BASIS
    atoms 1-2, 10-13 entry C          line   138 file /theoryfs2/ds/metcalf/miniconda2/envs/tf2gpu/share/psi4/basis/cc-pvdz.gbs 
    atoms 3          entry O          line   198 file /theoryfs2/ds/metcalf/miniconda2/envs/tf2gpu/share/psi4/basis/cc-pvdz.gbs 
    atoms 4          entry N          line   168 file /theoryfs2/ds/metcalf/miniconda2/envs/tf2gpu/share/psi4/basis/cc-pvdz.gbs 
    atoms 5-9, 14-23 entry H          line    22 file /theoryfs2/ds/metcalf/miniconda2/envs/tf2gpu/share/psi4/basis/cc-pvdz.gbs 


         ---------------------------------------------------------
                                   SCF
               by Justin Turney, Rob Parrish, Andy Simmonett
                          and Daniel G. A. Smith
                              RHF Reference
                        1 Threads,    500 MiB Core
         ---------------------------------------------------------

  ==> Geometry <==

    Molecular point group: c1
    Full point group: C1

    Geometry (in Angstrom), charge = 0, multiplicity = 1:

       Center              X                  Y                   Z               Mass       
    ------------   -----------------  -----------------  -----------------  -----------------
         C            2.098323785028    -0.229321892074     1.221190324738    12.000000000000
         C            0.824323785028     0.269678107926     1.870190324738    12.000000000000
         O            0.232323785028    -0.442321892074     2.697190324738    15.994914619570
         N            0.369323785028     1.444678107926     1.484190324738    14.003074004430
         H            2.867323785028     0.524678107926     1.358190324738     1.007825032230
         H            1.940323785028    -0.359321892074     0.152190324738     1.007825032230
         H           -0.475676214972     1.838678107926     1.865190324738     1.007825032230
         H            0.918323785028     1.951678107926     0.798190324738     1.007825032230
         H            2.436483785028    -1.169548892074     1.681209324738     1.007825032230
         C           -0.777676214972    -0.309321892074    -1.501809675262    12.000000000000
         C           -1.211676214972    -1.710321892074    -1.955809675262    12.000000000000
         C            0.342323785028     0.164678107926    -2.401809675262    12.000000000000
         C           -1.907676214972     0.718678107926    -1.457809675262    12.000000000000
         H           -0.377676214972    -0.391321892074    -0.495809675262     1.007825032230
         H           -0.368676214972    -2.396321892074    -1.857809675262     1.007825032230
         H           -1.471676214972    -1.654321892074    -3.013809675262     1.007825032230
         H           -0.005676214972     0.234678107926    -3.430809675262     1.007825032230
         H            0.670323785028     1.152678107926    -2.085809675262     1.007825032230
         H            1.185323785028    -0.523321892074    -2.344809675262     1.007825032230
         H           -2.616676214972     0.454678107926    -0.675809675262     1.007825032230
         H           -1.494676214972     1.698678107926    -1.224809675262     1.007825032230
         H           -2.420676214972     0.754678107926    -2.418809675262     1.007825032230
         H           -2.079556214972    -2.120093892074    -1.418343675262     1.007825032230

  Running in c1 symmetry.

  Rotational constants: A =      0.08429  B =      0.02807  C =      0.02730 [cm^-1]
  Rotational constants: A =   2526.91938  B =    841.37218  C =    818.44542 [MHz]
  Nuclear repulsion =  388.025644395620532

  Charge       = 0
  Multiplicity = 1
  Electrons    = 66
  Nalpha       = 33
  Nbeta        = 33

  ==> Algorithm <==

  SCF Algorithm Type is PK.
  DIIS enabled.
  MOM disabled.
  Fractional occupation disabled.
  Guess Type is SAD.
  Energy threshold   = 1.00e-06
  Density threshold  = 1.00e-10
  Integral threshold = 0.00e+00

  ==> Primary Basis <==

  Basis Set: CC-PVDZ
    Blend: CC-PVDZ
    Number of shells: 93
    Number of basis function: 187
    Number of Cartesian functions: 195
    Spherical Harmonics?: true
    Max angular momentum: 2

  ==> Pre-Iterations <==

   -------------------------------------------------------
    Irrep   Nso     Nmo     Nalpha   Nbeta   Ndocc  Nsocc
   -------------------------------------------------------
     A        187     187       0       0       0       0
   -------------------------------------------------------
    Total     187     187      33      33      33       0
   -------------------------------------------------------

  ==> Integral Setup <==

  Using integral reordering PK algorithm.
  Sizing the integral batches needed.
  Building batch lookup table.
   Calculation information:
      Number of atoms:                  23
      Number of AO shells:              93
      Number of primitives:            251
      Number of atomic orbitals:       195
      Number of basis functions:       187

      Integral cutoff                 1.00e-12
      Number of threads:                 1

	Batch   1 pq = [       0,    9405] index = [             0,44231715] size =     44231715
	Batch   2 pq = [    9405,   13301] index = [      44231715,88464951] size =     44233236
	Batch   3 pq = [   13301,   16290] index = [      88464951,132690195] size =     44225244
	Batch   4 pq = [   16290,   17578] index = [     132690195,154501831] size =     21811636
  Task number: 14
  Buffer size: 11059200
  Buffer per thread: 2
  We computed 9012067 shell quartets total.
  Whereas there are 9555006 unique shell quartets.

  ==> DiskJK: Disk-Based J/K Matrices <==

    J tasked:                  Yes
    K tasked:                  Yes
    wK tasked:                  No
    Memory [MiB]:              375
    Schwarz Cutoff:          1E-12

    OpenMP threads:              1

  Minimum eigenvalue in the overlap matrix is 4.0843438213E-03.
  Using Symmetric Orthogonalization.

  SCF Guess: Superposition of Atomic Densities via on-the-fly atomic UHF.

  ==> Iterations <==

                        Total Energy        Delta E     RMS |[F,P]|

   @RHF iter SAD:  -364.05070000969789   -3.64051e+02   0.00000e+00 
   @RHF iter   1:  -364.99457148173241   -9.43871e-01   3.84954e-03 DIIS
   @RHF iter   2:  -365.22817889570155   -2.33607e-01   2.12454e-03 DIIS
   @RHF iter   3:  -365.29133335777874   -6.31545e-02   4.65964e-04 DIIS
   @RHF iter   4:  -365.29581143867705   -4.47808e-03   1.90026e-04 DIIS
   @RHF iter   5:  -365.29657333416071   -7.61895e-04   3.01082e-05 DIIS
   @RHF iter   6:  -365.29660856572758   -3.52316e-05   1.36776e-05 DIIS
   @RHF iter   7:  -365.29661552276445   -6.95704e-06   4.99312e-06 DIIS
   @RHF iter   8:  -365.29661682818283   -1.30542e-06   1.62159e-06 DIIS
   @RHF iter   9:  -365.29661697459090   -1.46408e-07   4.01019e-07 DIIS
   @RHF iter  10:  -365.29661698205638   -7.46547e-09   1.32536e-07 DIIS
   @RHF iter  11:  -365.29661698275646   -7.00084e-10   4.01232e-08 DIIS
   @RHF iter  12:  -365.29661698280916   -5.26938e-11   9.90111e-09 DIIS
   @RHF iter  13:  -365.29661698281109   -1.93268e-12   2.60011e-09 DIIS
   @RHF iter  14:  -365.29661698281200   -9.09495e-13   8.15713e-10 DIIS
   @RHF iter  15:  -365.29661698281205   -5.68434e-14   2.79388e-10 DIIS
   @RHF iter  16:  -365.29661698281063    1.42109e-12   1.16415e-10 DIIS
   @RHF iter  17:  -365.29661698281291   -2.27374e-12   5.61516e-11 DIIS
  Energy and wave function converged.


  ==> Post-Iterations <==

    Orbital Energies [Eh]
    ---------------------

    Doubly Occupied:                                                      

       1A    -20.501445     2A    -15.593281     3A    -11.347309  
       4A    -11.241508     5A    -11.224760     6A    -11.220050  
       7A    -11.217976     8A    -11.216622     9A     -1.359909  
      10A     -1.221182    11A     -1.088661    12A     -1.001185  
      13A     -0.934912    14A     -0.929052    15A     -0.803333  
      16A     -0.769268    17A     -0.729855    18A     -0.654164  
      19A     -0.641187    20A     -0.611313    21A     -0.600467  
      22A     -0.588872    23A     -0.565340    24A     -0.558503  
      25A     -0.544585    26A     -0.533755    27A     -0.521697  
      28A     -0.514255    29A     -0.465028    30A     -0.463349  
      31A     -0.458574    32A     -0.407117    33A     -0.402608  

    Virtual:                                                              

      34A      0.145540    35A      0.185685    36A      0.196002  
      37A      0.202641    38A      0.213725    39A      0.231887  
      40A      0.246778    41A      0.250405    42A      0.257402  
      43A      0.261452    44A      0.279380    45A      0.286222  
      46A      0.298702    47A      0.306473    48A      0.320423  
      49A      0.347037    50A      0.360790    51A      0.387975  
      52A      0.406033    53A      0.409240    54A      0.471857  
      55A      0.554111    56A      0.568829    57A      0.581430  
      58A      0.606021    59A      0.622027    60A      0.626958  
      61A      0.640226    62A      0.681771    63A      0.703167  
      64A      0.717717    65A      0.734289    66A      0.758257  
      67A      0.769650    68A      0.788911    69A      0.827555  
      70A      0.831703    71A      0.851587    72A      0.859087  
      73A      0.874274    74A      0.884191    75A      0.890894  
      76A      0.894476    77A      0.900745    78A      0.901385  
      79A      0.906635    80A      0.918401    81A      0.922856  
      82A      0.935014    83A      0.939534    84A      0.946372  
      85A      0.969343    86A      0.975477    87A      0.985075  
      88A      1.019023    89A      1.072247    90A      1.085433  
      91A      1.100670    92A      1.124907    93A      1.133950  
      94A      1.135889    95A      1.141011    96A      1.266020  
      97A      1.320288    98A      1.341013    99A      1.366228  
     100A      1.375055   101A      1.399689   102A      1.403487  
     103A      1.421781   104A      1.432526   105A      1.473802  
     106A      1.511398   107A      1.529674   108A      1.569975  
     109A      1.638086   110A      1.658576   111A      1.662249  
     112A      1.679179   113A      1.684168   114A      1.690482  
     115A      1.698136   116A      1.714805   117A      1.730195  
     118A      1.741568   119A      1.790175   120A      1.832733  
     121A      1.843293   122A      1.857458   123A      1.877928  
     124A      1.883234   125A      1.902417   126A      1.913595  
     127A      1.923606   128A      1.939904   129A      1.945655  
     130A      1.959648   131A      1.969925   132A      1.979767  
     133A      1.996781   134A      1.997663   135A      2.016164  
     136A      2.026915   137A      2.038501   138A      2.064877  
     139A      2.078246   140A      2.114680   141A      2.126102  
     142A      2.131579   143A      2.149112   144A      2.160180  
     145A      2.241577   146A      2.246252   147A      2.262263  
     148A      2.265565   149A      2.301053   150A      2.311099  
     151A      2.332819   152A      2.364383   153A      2.378711  
     154A      2.450274   155A      2.462412   156A      2.482349  
     157A      2.503433   158A      2.550511   159A      2.577149  
     160A      2.601503   161A      2.616709   162A      2.623511  
     163A      2.633346   164A      2.694410   165A      2.717445  
     166A      2.734753   167A      2.753614   168A      2.766705  
     169A      2.790942   170A      2.794244   171A      2.807650  
     172A      2.818231   173A      2.834637   174A      2.846377  
     175A      2.860493   176A      2.870786   177A      2.997651  
     178A      3.016107   179A      3.029422   180A      3.105636  
     181A      3.139111   182A      3.164933   183A      3.287086  
     184A      3.504405   185A      3.536778   186A      3.848702  
     187A      3.896847  

    Final Occupation by Irrep:
              A 
    DOCC [    33 ]

  @RHF Final Energy:  -365.29661698281291

   => Energetics <=

    Nuclear Repulsion Energy =            388.0256443956205317
    One-Electron Energy =               -1264.7822760319647841
    Two-Electron Energy =                 511.4600146535314025
    Total Energy =                       -365.2966169828129068

Computation Completed


Properties will be evaluated at   0.000000,   0.000000,   0.000000 [a0]

Properties computed using the SCF density matrix

  Nuclear Dipole Moment: [e a0]
     X:    -1.2120      Y:    -0.0099      Z:   -12.2831

  Electronic Dipole Moment: [e a0]
     X:     1.7668      Y:     1.1603      Z:    11.2357

  Dipole Moment: [e a0]
     X:     0.5548      Y:     1.1504      Z:    -1.0475     Total:     1.6518

  Dipole Moment: [D]
     X:     1.4101      Y:     2.9239      Z:    -2.6624     Total:     4.1984


*** tstop() called on ds3 at Tue Apr 28 11:25:20 2020
Module time:
	user time   =      58.93 seconds =       0.98 minutes
	system time =      27.11 seconds =       0.45 minutes
	total time  =         82 seconds =       1.37 minutes
Total time:
	user time   =      58.93 seconds =       0.98 minutes
	system time =      27.11 seconds =       0.45 minutes
	total time  =         82 seconds =       1.37 minutes
                                     G D M A

                                 by Anthony Stone

                           version 2.2.06, 22 June 2011

               Distributed Multipoles from Gaussian wavefunctions


Starting at 11:25:21 on 28 Apr 2020 


Using SCF density matrix from file ./SSI/SSI-081ASN-084LEU-1-dimer.test.31055.fchk


                         Distributed Multipole Analysis

Standard DMA

Positions and radii in angstrom
Multipole moments in atomic units, ea_0^k for rank k

C          x =  2.098324  y = -0.229322  z =  1.221190 angstrom
           Maximum rank =  0   Radius =  0.650 angstrom
                   Q00  =  -0.258440

C          x =  0.824324  y =  0.269678  z =  1.870190 angstrom
           Maximum rank =  0   Radius =  0.650 angstrom
                   Q00  =   0.806097

O          x =  0.232324  y = -0.442322  z =  2.697190 angstrom
           Maximum rank =  0   Radius =  0.650 angstrom
                   Q00  =  -0.806275

N          x =  0.369324  y =  1.444678  z =  1.484190 angstrom
           Maximum rank =  0   Radius =  0.650 angstrom
                   Q00  =  -0.509942

H          x =  2.867324  y =  0.524678  z =  1.358190 angstrom
           Maximum rank =  0   Radius =  0.325 angstrom
                   Q00  =   0.097398

H          x =  1.940324  y = -0.359322  z =  0.152190 angstrom
           Maximum rank =  0   Radius =  0.325 angstrom
                   Q00  =   0.113780

H          x = -0.475676  y =  1.838678  z =  1.865190 angstrom
           Maximum rank =  0   Radius =  0.325 angstrom
                   Q00  =   0.232217

H          x =  0.918324  y =  1.951678  z =  0.798190 angstrom
           Maximum rank =  0   Radius =  0.325 angstrom
                   Q00  =   0.200144

H          x =  2.436484  y = -1.169549  z =  1.681209 angstrom
           Maximum rank =  0   Radius =  0.325 angstrom
                   Q00  =   0.131482

C          x = -0.777676  y = -0.309322  z = -1.501810 angstrom
           Maximum rank =  0   Radius =  0.650 angstrom
                   Q00  =  -0.002903

C          x = -1.211676  y = -1.710322  z = -1.955810 angstrom
           Maximum rank =  0   Radius =  0.650 angstrom
                   Q00  =  -0.233792

C          x =  0.342324  y =  0.164678  z = -2.401810 angstrom
           Maximum rank =  0   Radius =  0.650 angstrom
                   Q00  =  -0.238592

C          x = -1.907676  y =  0.718678  z = -1.457810 angstrom
           Maximum rank =  0   Radius =  0.650 angstrom
                   Q00  =  -0.242150

H          x = -0.377676  y = -0.391322  z = -0.495810 angstrom
           Maximum rank =  0   Radius =  0.325 angstrom
                   Q00  =   0.012632

H          x = -0.368676  y = -2.396322  z = -1.857810 angstrom
           Maximum rank =  0   Radius =  0.325 angstrom
                   Q00  =   0.083220

H          x = -1.471676  y = -1.654322  z = -3.013810 angstrom
           Maximum rank =  0   Radius =  0.325 angstrom
                   Q00  =   0.069689

H          x = -0.005676  y =  0.234678  z = -3.430810 angstrom
           Maximum rank =  0   Radius =  0.325 angstrom
                   Q00  =   0.081424

H          x =  0.670324  y =  1.152678  z = -2.085810 angstrom
           Maximum rank =  0   Radius =  0.325 angstrom
                   Q00  =   0.062792

H          x =  1.185324  y = -0.523322  z = -2.344810 angstrom
           Maximum rank =  0   Radius =  0.325 angstrom
                   Q00  =   0.077129

H          x = -2.616676  y =  0.454678  z = -0.675810 angstrom
           Maximum rank =  0   Radius =  0.325 angstrom
                   Q00  =   0.089319

H          x = -1.494676  y =  1.698678  z = -1.224810 angstrom
           Maximum rank =  0   Radius =  0.325 angstrom
                   Q00  =   0.068965

H          x = -2.420676  y =  0.754678  z = -2.418810 angstrom
           Maximum rank =  0   Radius =  0.325 angstrom
                   Q00  =   0.076895

H          x = -2.079556  y = -2.120094  z = -1.418344 angstrom
           Maximum rank =  0   Radius =  0.325 angstrom
                   Q00  =   0.088914

Total multipoles referred to origin at
           x =   0.000000,  y =    0.000000,  z =    0.000000 angstrom
                   Q00  =  -0.000000

Finished at 11:25:21 on 28 Apr 2020 

  DMA results are available in the Python driver through the
	  variable('DMA DISTRIBUTED MULTIPOLES')
  and
	  variable('DMA TOTAL MULTIPOLES')
  commands.


    Psi4 stopped on: Tuesday, 28 April 2020 11:25AM
    Psi4 wall time for execution: 0:01:23.05

*** Psi4 exiting successfully. Buy a developer a beer!
