
    -----------------------------------------------------------------------
          Psi4: An Open-Source Ab Initio Electronic Structure Package
                               Psi4 1.3.2 release

                         Git: Rev {HEAD} ecbda83 


    R. M. Parrish, L. A. Burns, D. G. A. Smith, A. C. Simmonett,
    A. E. DePrince III, E. G. Hohenstein, U. Bozkaya, A. Yu. Sokolov,
    R. Di Remigio, R. M. Richard, J. F. Gonthier, A. M. James,
    H. R. McAlexander, A. Kumar, M. Saitow, X. Wang, B. P. Pritchard,
    P. Verma, H. F. Schaefer III, K. Patkowski, R. A. King, E. F. Valeev,
    F. A. Evangelista, J. M. Turney, T. D. Crawford, and C. D. Sherrill,
    J. Chem. Theory Comput. 13(7) pp 3185--3197 (2017).
    (doi: 10.1021/acs.jctc.7b00174)


                         Additional Contributions by
    P. Kraus, H. Kruse, M. H. Lechner, M. C. Schieber, R. A. Shaw,
    A. Alenaizan, R. Galvelis, Z. L. Glick, S. Lehtola, and J. P. Misiewicz

    -----------------------------------------------------------------------


    Psi4 started on: Sunday, 26 April 2020 06:36PM

    Process ID: 18822
    Host:       ds3
    PSIDATADIR: /theoryfs2/ds/metcalf/miniconda2/envs/tf2gpu/share/psi4
    Memory:     500.0 MiB
    Threads:    1
    
  ==> Input File <==

--------------------------------------------------------------------------
import numpy as np
set {scf_type pk
basis cc-pvdz
d_convergence 10
gdma_switch   0
gdma_limit    0
gdma_origin   [ 0.0,  0.0,  0.0 ]
}
molecule test {
    units Angstrom
    0 1
    --
    0 1
    C               -2.585429844468702     1.116324746197677     2.699918019836954
    C               -0.329429844468701     0.635324746197677     1.702918019836954
    C               -1.103429844468701     0.894324746197677     2.829918019836954
    C                1.040570155531299     0.439324746197677     1.816918019836954
    C               -0.488429844468701     0.965324746197677     4.074918019836954
    C                1.648570155531299     0.508324746197677     3.062918019836954
    C                0.881570155531299     0.769324746197677     4.192918019836954
    H               -0.792429844468701     0.581324746197677     0.727918019836954
    H                1.633570155531298     0.240324746197677     0.933918019836954
    H               -3.086429844468701     0.684324746197677     3.566918019836954
    H               -2.936429844468702     0.582324746197677     1.822918019836954
    H               -1.079429844468701     1.169324746197677     4.956918019836954
    H                2.716570155531298     0.364324746197677     3.151918019836954
    H                1.349570155531299     0.815324746197677     5.165918019836955
    H               -2.863989844468701     2.176734746197677     2.610888019836954
    C                0.530570155531299    -3.547675253802323    -2.232081980163046
    C               -1.033429844468701    -0.088675253802323    -2.024081980163046
    C               -0.036429844468701     0.698324746197677    -2.590081980163046
    C               -0.847429844468701    -1.462675253802323    -1.910081980163046
    C                0.331570155531299    -2.058675253802323    -2.351081980163046
    C                1.142570155531299     0.114324746197677    -3.038081980163046
    C                1.320570155531299    -1.259675253802323    -2.919081980163046
    O               -0.217429844468701     2.043324746197677    -2.704081980163046
    H               -1.944429844468701     0.374324746197677    -1.674081980163046
    H               -1.627429844468701    -2.072675253802323    -1.473081980163046
    H                1.921570155531299     0.718324746197677    -3.475081980163046
    H                0.548570155531299     2.503324746197677    -3.060081980163046
    H               -0.181429844468701    -3.959675253802323    -1.519081980163046
    H                1.525570155531299    -3.719675253802323    -1.838081980163046
    H                2.239570155531299    -1.709675253802323    -3.272081980163046
    H                0.407966155531299    -4.071985253802323    -3.191281980163046

}
e, wfn = energy('scf', return_wfn=True)
gdma(wfn)
dmavals = variable('DMA DISTRIBUTED MULTIPOLES')
charges = np.array(dmavals)
print(charges)
np.save('SSI-048PHE-105TYR-1-dimer.npy', np.array(charges))--------------------------------------------------------------------------

*** tstart() called on ds3
*** at Sun Apr 26 18:36:42 2020

   => Loading Basis Set <=

    Name: CC-PVDZ
    Role: ORBITAL
    Keyword: BASIS
    atoms 1-7, 16-22  entry C          line   138 file /theoryfs2/ds/metcalf/miniconda2/envs/tf2gpu/share/psi4/basis/cc-pvdz.gbs 
    atoms 8-15, 24-31 entry H          line    22 file /theoryfs2/ds/metcalf/miniconda2/envs/tf2gpu/share/psi4/basis/cc-pvdz.gbs 
    atoms 23          entry O          line   198 file /theoryfs2/ds/metcalf/miniconda2/envs/tf2gpu/share/psi4/basis/cc-pvdz.gbs 


         ---------------------------------------------------------
                                   SCF
               by Justin Turney, Rob Parrish, Andy Simmonett
                          and Daniel G. A. Smith
                              RHF Reference
                        1 Threads,    500 MiB Core
         ---------------------------------------------------------

  ==> Geometry <==

    Molecular point group: c1
    Full point group: C1

    Geometry (in Angstrom), charge = 0, multiplicity = 1:

       Center              X                  Y                   Z               Mass       
    ------------   -----------------  -----------------  -----------------  -----------------
         C           -2.585429844469     1.116324746198     2.699918019837    12.000000000000
         C           -0.329429844469     0.635324746198     1.702918019837    12.000000000000
         C           -1.103429844469     0.894324746198     2.829918019837    12.000000000000
         C            1.040570155531     0.439324746198     1.816918019837    12.000000000000
         C           -0.488429844469     0.965324746198     4.074918019837    12.000000000000
         C            1.648570155531     0.508324746198     3.062918019837    12.000000000000
         C            0.881570155531     0.769324746198     4.192918019837    12.000000000000
         H           -0.792429844469     0.581324746198     0.727918019837     1.007825032230
         H            1.633570155531     0.240324746198     0.933918019837     1.007825032230
         H           -3.086429844469     0.684324746198     3.566918019837     1.007825032230
         H           -2.936429844469     0.582324746198     1.822918019837     1.007825032230
         H           -1.079429844469     1.169324746198     4.956918019837     1.007825032230
         H            2.716570155531     0.364324746198     3.151918019837     1.007825032230
         H            1.349570155531     0.815324746198     5.165918019837     1.007825032230
         H           -2.863989844469     2.176734746198     2.610888019837     1.007825032230
         C            0.530570155531    -3.547675253802    -2.232081980163    12.000000000000
         C           -1.033429844469    -0.088675253802    -2.024081980163    12.000000000000
         C           -0.036429844469     0.698324746198    -2.590081980163    12.000000000000
         C           -0.847429844469    -1.462675253802    -1.910081980163    12.000000000000
         C            0.331570155531    -2.058675253802    -2.351081980163    12.000000000000
         C            1.142570155531     0.114324746198    -3.038081980163    12.000000000000
         C            1.320570155531    -1.259675253802    -2.919081980163    12.000000000000
         O           -0.217429844469     2.043324746198    -2.704081980163    15.994914619570
         H           -1.944429844469     0.374324746198    -1.674081980163     1.007825032230
         H           -1.627429844469    -2.072675253802    -1.473081980163     1.007825032230
         H            1.921570155531     0.718324746198    -3.475081980163     1.007825032230
         H            0.548570155531     2.503324746198    -3.060081980163     1.007825032230
         H           -0.181429844469    -3.959675253802    -1.519081980163     1.007825032230
         H            1.525570155531    -3.719675253802    -1.838081980163     1.007825032230
         H            2.239570155531    -1.709675253802    -3.272081980163     1.007825032230
         H            0.407966155531    -4.071985253802    -3.191281980163     1.007825032230

  Running in c1 symmetry.

  Rotational constants: A =      0.02808  B =      0.00885  C =      0.00830 [cm^-1]
  Rotational constants: A =    841.75663  B =    265.46411  C =    248.93129 [MHz]
  Nuclear repulsion =  873.756879555133537

  Charge       = 0
  Multiplicity = 1
  Electrons    = 108
  Nalpha       = 54
  Nbeta        = 54

  ==> Algorithm <==

  SCF Algorithm Type is PK.
  DIIS enabled.
  MOM disabled.
  Fractional occupation disabled.
  Guess Type is SAD.
  Energy threshold   = 1.00e-06
  Density threshold  = 1.00e-10
  Integral threshold = 0.00e+00

  ==> Primary Basis <==

  Basis Set: CC-PVDZ
    Blend: CC-PVDZ
    Number of shells: 138
    Number of basis function: 290
    Number of Cartesian functions: 305
    Spherical Harmonics?: true
    Max angular momentum: 2

  ==> Pre-Iterations <==

   -------------------------------------------------------
    Irrep   Nso     Nmo     Nalpha   Nbeta   Ndocc  Nsocc
   -------------------------------------------------------
     A        290     290       0       0       0       0
   -------------------------------------------------------
    Total     290     290      54      54      54       0
   -------------------------------------------------------

  ==> Integral Setup <==

  Using integral reordering PK algorithm.
  Sizing the integral batches needed.
  Building batch lookup table.
   Calculation information:
      Number of atoms:                  31
      Number of AO shells:             138
      Number of primitives:            410
      Number of atomic orbitals:       305
      Number of basis functions:       290

      Integral cutoff                 1.00e-12
      Number of threads:                 1

	Batch   1 pq = [       0,    9405] index = [             0,44231715] size =     44231715
	Batch   2 pq = [    9405,   13301] index = [      44231715,88464951] size =     44233236
	Batch   3 pq = [   13301,   16290] index = [      88464951,132690195] size =     44225244
	Batch   4 pq = [   16290,   18810] index = [     132690195,176917455] size =     44227260
	Batch   5 pq = [   18810,   21030] index = [     176917455,221140965] size =     44223510
	Batch   6 pq = [   21030,   23037] index = [     221140965,265363203] size =     44222238
	Batch   7 pq = [   23037,   24883] index = [     265363203,309594286] size =     44231083
	Batch   8 pq = [   24883,   26601] index = [     309594286,353819901] size =     44225615
	Batch   9 pq = [   26601,   28214] index = [     353819901,398029005] size =     44209104
	Batch  10 pq = [   28214,   29740] index = [     398029005,442248670] size =     44219665
	Batch  11 pq = [   29740,   31191] index = [     442248670,486454836] size =     44206166
	Batch  12 pq = [   31191,   32578] index = [     486454836,530679331] size =     44224495
	Batch  13 pq = [   32578,   33908] index = [     530679331,574893186] size =     44213855
	Batch  14 pq = [   33908,   35188] index = [     574893186,619115266] size =     44222080
	Batch  15 pq = [   35188,   36423] index = [     619115266,663335676] size =     44220410
	Batch  16 pq = [   36423,   37617] index = [     663335676,707538153] size =     44202477
	Batch  17 pq = [   37617,   38775] index = [     707538153,751769700] size =     44231547
	Batch  18 pq = [   38775,   39899] index = [     751769700,795985050] size =     44215350
	Batch  19 pq = [   39899,   40992] index = [     795985050,840192528] size =     44207478
	Batch  20 pq = [   40992,   42057] index = [     840192528,884416653] size =     44224125
	Batch  21 pq = [   42057,   42195] index = [     884416653,890230110] size =      5813457
  Task number: 81
  Buffer size: 11059200
  Buffer per thread: 2
  We computed 40768969 shell quartets total.
  Whereas there are 45998436 unique shell quartets.

  ==> DiskJK: Disk-Based J/K Matrices <==

    J tasked:                  Yes
    K tasked:                  Yes
    wK tasked:                  No
    Memory [MiB]:              375
    Schwarz Cutoff:          1E-12

    OpenMP threads:              1

  Minimum eigenvalue in the overlap matrix is 2.8956861106E-04.
  Using Symmetric Orthogonalization.

  SCF Guess: Superposition of Atomic Densities via on-the-fly atomic UHF.

  ==> Iterations <==

                        Total Energy        Delta E     RMS |[F,P]|

   @RHF iter SAD:  -613.25119055241737   -6.13251e+02   0.00000e+00 
   @RHF iter   1:  -614.06155991437856   -8.10369e-01   2.38532e-03 DIIS
   @RHF iter   2:  -614.33869590738823   -2.77136e-01   9.90373e-04 DIIS
   @RHF iter   3:  -614.38072791064724   -4.20320e-02   2.34095e-04 DIIS
   @RHF iter   4:  -614.38430051528246   -3.57260e-03   9.06736e-05 DIIS
   @RHF iter   5:  -614.38470389574741   -4.03380e-04   1.70956e-05 DIIS
   @RHF iter   6:  -614.38472446265951   -2.05669e-05   5.47526e-06 DIIS
   @RHF iter   7:  -614.38472661785818   -2.15520e-06   1.56044e-06 DIIS
   @RHF iter   8:  -614.38472687356898   -2.55711e-07   5.69964e-07 DIIS
   @RHF iter   9:  -614.38472690778349   -3.42145e-08   2.28865e-07 DIIS
   @RHF iter  10:  -614.38472691346522   -5.68173e-09   8.88841e-08 DIIS
   @RHF iter  11:  -614.38472691510447   -1.63925e-09   4.12882e-08 DIIS
   @RHF iter  12:  -614.38472691548498   -3.80510e-10   2.26829e-08 DIIS
   @RHF iter  13:  -614.38472691558002   -9.50422e-11   6.93017e-09 DIIS
   @RHF iter  14:  -614.38472691558752   -7.50333e-12   1.76289e-09 DIIS
   @RHF iter  15:  -614.38472691559025   -2.72848e-12   6.00291e-10 DIIS
   @RHF iter  16:  -614.38472691559127   -1.02318e-12   2.07280e-10 DIIS
   @RHF iter  17:  -614.38472691559195   -6.82121e-13   8.56910e-11 DIIS
  Energy and wave function converged.


  ==> Post-Iterations <==

    Orbital Energies [Eh]
    ---------------------

    Doubly Occupied:                                                      

       1A    -20.583594     2A    -11.301565     3A    -11.240504  
       4A    -11.239826     5A    -11.234961     6A    -11.234079  
       7A    -11.232554     8A    -11.232164     9A    -11.228776  
      10A    -11.227506    11A    -11.226762    12A    -11.224199  
      13A    -11.223605    14A    -11.223474    15A    -11.220544  
      16A     -1.400863    17A     -1.154053    18A     -1.147634  
      19A     -1.039794    20A     -1.038942    21A     -1.021112  
      22A     -1.005671    23A     -0.928267    24A     -0.925839  
      25A     -0.846757    26A     -0.818301    27A     -0.805309  
      28A     -0.789259    29A     -0.735538    30A     -0.684938  
      31A     -0.669779    32A     -0.643379    33A     -0.625816  
      34A     -0.622350    35A     -0.609275    36A     -0.590112  
      37A     -0.589009    38A     -0.575617    39A     -0.573655  
      40A     -0.572358    41A     -0.566860    42A     -0.556180  
      43A     -0.530153    44A     -0.527035    45A     -0.499426  
      46A     -0.486841    47A     -0.481869    48A     -0.477591  
      49A     -0.475555    50A     -0.468871    51A     -0.341660  
      52A     -0.325930    53A     -0.316168    54A     -0.303492  

    Virtual:                                                              

      55A      0.127177    56A      0.143501    57A      0.146474  
      58A      0.155985    59A      0.174963    60A      0.180714  
      61A      0.191786    62A      0.201287    63A      0.217155  
      64A      0.220297    65A      0.233885    66A      0.249798  
      67A      0.254438    68A      0.264467    69A      0.266401  
      70A      0.277765    71A      0.287967    72A      0.290844  
      73A      0.297409    74A      0.321386    75A      0.368906  
      76A      0.373516    77A      0.376645    78A      0.382432  
      79A      0.426944    80A      0.452227    81A      0.459652  
      82A      0.470574    83A      0.485930    84A      0.487905  
      85A      0.494529    86A      0.497129    87A      0.509044  
      88A      0.566945    89A      0.596946    90A      0.610071  
      91A      0.631999    92A      0.642487    93A      0.651240  
      94A      0.654605    95A      0.675355    96A      0.689292  
      97A      0.690966    98A      0.697406    99A      0.703131  
     100A      0.716723   101A      0.720764   102A      0.727111  
     103A      0.733732   104A      0.738800   105A      0.747855  
     106A      0.751000   107A      0.754287   108A      0.767681  
     109A      0.770596   110A      0.772265   111A      0.779243  
     112A      0.781227   113A      0.785226   114A      0.795675  
     115A      0.815337   116A      0.829679   117A      0.845661  
     118A      0.852208   119A      0.856182   120A      0.867123  
     121A      0.870193   122A      0.874778   123A      0.880867  
     124A      0.885944   125A      0.892211   126A      0.896404  
     127A      0.897351   128A      0.909028   129A      0.921653  
     130A      0.930296   131A      0.932568   132A      0.941711  
     133A      0.944632   134A      0.952982   135A      0.956123  
     136A      0.966656   137A      1.007052   138A      1.014754  
     139A      1.022801   140A      1.041429   141A      1.053420  
     142A      1.102264   143A      1.124510   144A      1.133759  
     145A      1.137451   146A      1.142686   147A      1.145198  
     148A      1.160029   149A      1.163247   150A      1.184053  
     151A      1.204213   152A      1.207622   153A      1.245112  
     154A      1.247561   155A      1.250228   156A      1.256524  
     157A      1.257636   158A      1.262025   159A      1.275071  
     160A      1.286976   161A      1.289970   162A      1.307762  
     163A      1.311293   164A      1.314406   165A      1.324272  
     166A      1.331697   167A      1.344074   168A      1.360117  
     169A      1.382966   170A      1.401896   171A      1.424796  
     172A      1.481072   173A      1.504286   174A      1.524119  
     175A      1.529579   176A      1.540670   177A      1.558666  
     178A      1.574946   179A      1.607567   180A      1.619336  
     181A      1.627478   182A      1.678904   183A      1.685730  
     184A      1.695401   185A      1.708972   186A      1.732227  
     187A      1.738740   188A      1.744947   189A      1.756035  
     190A      1.764835   191A      1.781175   192A      1.794305  
     193A      1.803638   194A      1.810298   195A      1.819645  
     196A      1.862837   197A      1.869831   198A      1.885979  
     199A      1.894834   200A      1.895549   201A      1.905565  
     202A      1.912145   203A      1.913593   204A      1.917876  
     205A      1.920164   206A      1.926917   207A      1.935006  
     208A      1.948252   209A      1.955068   210A      1.958041  
     211A      1.964499   212A      1.970088   213A      1.978958  
     214A      1.994593   215A      1.998804   216A      2.002825  
     217A      2.030202   218A      2.039721   219A      2.054936  
     220A      2.060675   221A      2.067697   222A      2.069654  
     223A      2.076418   224A      2.084961   225A      2.118180  
     226A      2.129753   227A      2.143349   228A      2.155238  
     229A      2.168852   230A      2.170539   231A      2.174830  
     232A      2.180985   233A      2.191730   234A      2.203258  
     235A      2.220535   236A      2.261089   237A      2.269125  
     238A      2.271494   239A      2.288132   240A      2.300091  
     241A      2.302530   242A      2.307737   243A      2.327676  
     244A      2.331216   245A      2.337095   246A      2.371397  
     247A      2.411265   248A      2.455259   249A      2.469939  
     250A      2.480115   251A      2.496970   252A      2.503734  
     253A      2.507561   254A      2.534756   255A      2.548652  
     256A      2.557225   257A      2.611149   258A      2.630683  
     259A      2.646562   260A      2.743041   261A      2.752257  
     262A      2.765799   263A      2.775085   264A      2.778675  
     265A      2.794949   266A      2.798699   267A      2.806985  
     268A      2.836013   269A      2.849257   270A      2.858624  
     271A      2.885133   272A      2.909414   273A      2.963519  
     274A      2.990101   275A      3.007726   276A      3.023725  
     277A      3.031848   278A      3.090080   279A      3.118531  
     280A      3.166177   281A      3.217937   282A      3.243573  
     283A      3.283141   284A      3.315950   285A      3.352501  
     286A      3.571727   287A      3.669408   288A      3.984274  
     289A      3.986392   290A      4.194390  

    Final Occupation by Irrep:
              A 
    DOCC [    54 ]

  @RHF Final Energy:  -614.38472691559195

   => Energetics <=

    Nuclear Repulsion Energy =            873.7568795551335370
    One-Electron Energy =               -2566.9924652407989925
    Two-Electron Energy =                1078.8508587700735006
    Total Energy =                       -614.3847269155919548

Computation Completed


Properties will be evaluated at   0.000000,   0.000000,   0.000000 [a0]

Properties computed using the SCF density matrix

  Nuclear Dipole Moment: [e a0]
     X:    -2.0345      Y:    -4.9810      Z:     3.2067

  Electronic Dipole Moment: [e a0]
     X:     2.4585      Y:     4.8503      Z:    -3.5393

  Dipole Moment: [e a0]
     X:     0.4241      Y:    -0.1307      Z:    -0.3326     Total:     0.5546

  Dipole Moment: [D]
     X:     1.0779      Y:    -0.3322      Z:    -0.8453     Total:     1.4095


*** tstop() called on ds3 at Sun Apr 26 18:44:51 2020
Module time:
	user time   =     346.74 seconds =       5.78 minutes
	system time =     131.22 seconds =       2.19 minutes
	total time  =        489 seconds =       8.15 minutes
Total time:
	user time   =     346.74 seconds =       5.78 minutes
	system time =     131.22 seconds =       2.19 minutes
	total time  =        489 seconds =       8.15 minutes
                                     G D M A

                                 by Anthony Stone

                           version 2.2.06, 22 June 2011

               Distributed Multipoles from Gaussian wavefunctions


Starting at 18:44:51 on 26 Apr 2020 


Using SCF density matrix from file ./SSI/SSI-048PHE-105TYR-1-dimer.test.18822.fchk


                         Distributed Multipole Analysis

Standard DMA

Positions and radii in angstrom
Multipole moments in atomic units, ea_0^k for rank k

C          x = -2.585430  y =  1.116325  z =  2.699918 angstrom
           Maximum rank =  0   Radius =  0.650 angstrom
                   Q00  =  -0.197595

C          x = -0.329430  y =  0.635325  z =  1.702918 angstrom
           Maximum rank =  0   Radius =  0.650 angstrom
                   Q00  =   0.017143

C          x = -1.103430  y =  0.894325  z =  2.829918 angstrom
           Maximum rank =  0   Radius =  0.650 angstrom
                   Q00  =  -0.109162

C          x =  1.040570  y =  0.439325  z =  1.816918 angstrom
           Maximum rank =  0   Radius =  0.650 angstrom
                   Q00  =  -0.065361

C          x = -0.488430  y =  0.965325  z =  4.074918 angstrom
           Maximum rank =  0   Radius =  0.650 angstrom
                   Q00  =  -0.093815

C          x =  1.648570  y =  0.508325  z =  3.062918 angstrom
           Maximum rank =  0   Radius =  0.650 angstrom
                   Q00  =  -0.090603

C          x =  0.881570  y =  0.769325  z =  4.192918 angstrom
           Maximum rank =  0   Radius =  0.650 angstrom
                   Q00  =  -0.059386

H          x = -0.792430  y =  0.581325  z =  0.727918 angstrom
           Maximum rank =  0   Radius =  0.325 angstrom
                   Q00  =   0.062458

H          x =  1.633570  y =  0.240325  z =  0.933918 angstrom
           Maximum rank =  0   Radius =  0.325 angstrom
                   Q00  =   0.064959

H          x = -3.086430  y =  0.684325  z =  3.566918 angstrom
           Maximum rank =  0   Radius =  0.325 angstrom
                   Q00  =   0.096676

H          x = -2.936430  y =  0.582325  z =  1.822918 angstrom
           Maximum rank =  0   Radius =  0.325 angstrom
                   Q00  =   0.095631

H          x = -1.079430  y =  1.169325  z =  4.956918 angstrom
           Maximum rank =  0   Radius =  0.325 angstrom
                   Q00  =   0.052692

H          x =  2.716570  y =  0.364325  z =  3.151918 angstrom
           Maximum rank =  0   Radius =  0.325 angstrom
                   Q00  =   0.057154

H          x =  1.349570  y =  0.815325  z =  5.165918 angstrom
           Maximum rank =  0   Radius =  0.325 angstrom
                   Q00  =   0.061438

H          x = -2.863990  y =  2.176735  z =  2.610888 angstrom
           Maximum rank =  0   Radius =  0.325 angstrom
                   Q00  =   0.105386

C          x =  0.530570  y = -3.547675  z = -2.232082 angstrom
           Maximum rank =  0   Radius =  0.650 angstrom
                   Q00  =  -0.190885

C          x = -1.033430  y = -0.088675  z = -2.024082 angstrom
           Maximum rank =  0   Radius =  0.650 angstrom
                   Q00  =  -0.122528

C          x = -0.036430  y =  0.698325  z = -2.590082 angstrom
           Maximum rank =  0   Radius =  0.650 angstrom
                   Q00  =   0.313309

C          x = -0.847430  y = -1.462675  z = -1.910082 angstrom
           Maximum rank =  0   Radius =  0.650 angstrom
                   Q00  =  -0.010358

C          x =  0.331570  y = -2.058675  z = -2.351082 angstrom
           Maximum rank =  0   Radius =  0.650 angstrom
                   Q00  =  -0.137689

C          x =  1.142570  y =  0.114325  z = -3.038082 angstrom
           Maximum rank =  0   Radius =  0.650 angstrom
                   Q00  =  -0.180033

C          x =  1.320570  y = -1.259675  z = -2.919082 angstrom
           Maximum rank =  0   Radius =  0.650 angstrom
                   Q00  =   0.021741

O          x = -0.217430  y =  2.043325  z = -2.704082 angstrom
           Maximum rank =  0   Radius =  0.650 angstrom
                   Q00  =  -0.680729

H          x = -1.944430  y =  0.374325  z = -1.674082 angstrom
           Maximum rank =  0   Radius =  0.325 angstrom
                   Q00  =   0.080308

H          x = -1.627430  y = -2.072675  z = -1.473082 angstrom
           Maximum rank =  0   Radius =  0.325 angstrom
                   Q00  =   0.066008

H          x =  1.921570  y =  0.718325  z = -3.475082 angstrom
           Maximum rank =  0   Radius =  0.325 angstrom
                   Q00  =   0.072600

H          x =  0.548570  y =  2.503325  z = -3.060082 angstrom
           Maximum rank =  0   Radius =  0.325 angstrom
                   Q00  =   0.408251

H          x = -0.181430  y = -3.959675  z = -1.519082 angstrom
           Maximum rank =  0   Radius =  0.325 angstrom
                   Q00  =   0.097970

H          x =  1.525570  y = -3.719675  z = -1.838082 angstrom
           Maximum rank =  0   Radius =  0.325 angstrom
                   Q00  =   0.097381

H          x =  2.239570  y = -1.709675  z = -3.272082 angstrom
           Maximum rank =  0   Radius =  0.325 angstrom
                   Q00  =   0.067923

H          x =  0.407966  y = -4.071985  z = -3.191282 angstrom
           Maximum rank =  0   Radius =  0.325 angstrom
                   Q00  =   0.099115

Total multipoles referred to origin at
           x =   0.000000,  y =    0.000000,  z =    0.000000 angstrom
                   Q00  =  -0.000000

Finished at 18:44:52 on 26 Apr 2020 

  DMA results are available in the Python driver through the
	  variable('DMA DISTRIBUTED MULTIPOLES')
  and
	  variable('DMA TOTAL MULTIPOLES')
  commands.


    Psi4 stopped on: Sunday, 26 April 2020 06:44PM
    Psi4 wall time for execution: 0:08:09.33

*** Psi4 exiting successfully. Buy a developer a beer!
