
    -----------------------------------------------------------------------
          Psi4: An Open-Source Ab Initio Electronic Structure Package
                               Psi4 1.3.2 release

                         Git: Rev {HEAD} ecbda83 


    R. M. Parrish, L. A. Burns, D. G. A. Smith, A. C. Simmonett,
    A. E. DePrince III, E. G. Hohenstein, U. Bozkaya, A. Yu. Sokolov,
    R. Di Remigio, R. M. Richard, J. F. Gonthier, A. M. James,
    H. R. McAlexander, A. Kumar, M. Saitow, X. Wang, B. P. Pritchard,
    P. Verma, H. F. Schaefer III, K. Patkowski, R. A. King, E. F. Valeev,
    F. A. Evangelista, J. M. Turney, T. D. Crawford, and C. D. Sherrill,
    J. Chem. Theory Comput. 13(7) pp 3185--3197 (2017).
    (doi: 10.1021/acs.jctc.7b00174)


                         Additional Contributions by
    P. Kraus, H. Kruse, M. H. Lechner, M. C. Schieber, R. A. Shaw,
    A. Alenaizan, R. Galvelis, Z. L. Glick, S. Lehtola, and J. P. Misiewicz

    -----------------------------------------------------------------------


    Psi4 started on: Sunday, 26 April 2020 11:59PM

    Process ID: 6461
    Host:       ds3
    PSIDATADIR: /theoryfs2/ds/metcalf/miniconda2/envs/tf2gpu/share/psi4
    Memory:     500.0 MiB
    Threads:    1
    
  ==> Input File <==

--------------------------------------------------------------------------
import numpy as np
set {scf_type pk
basis cc-pvdz
d_convergence 10
gdma_switch   0
gdma_limit    0
gdma_origin   [ 0.0,  0.0,  0.0 ]
}
molecule test {
    units Angstrom
    0 1
    --
    0 1
    C                1.187724913219014    -1.282192243612952     2.440781121588917
    C                1.154724913219015    -2.341192243612952     1.337781121588917
    C                2.087724913219015    -0.075192243612952     2.152781121588918
    H                0.173724913219015    -0.912192243612951     2.589781121588917
    H                1.523724913219015    -1.734192243612951     3.371781121588917
    H                2.156724913219014    -2.728192243612952     1.156781121588917
    H                0.822724913219015    -1.870192243612951     0.414781121588917
    H                1.770724913219015     0.381807756387049     1.210781121588917
    H                1.949724913219015     0.660807756387048     2.952781121588917
    H                0.468554913219015    -3.166312243612952     1.579331121588917
    H                3.148854913219015    -0.359202243612951     2.094941121588917
    C                0.302724913219015     2.779807756387048    -1.211218878411083
    C               -1.632275086780985    -0.118192243612951     0.249781121588917
    C               -1.057275086780985     1.122807756387049     0.095781121588917
    C               -1.494275086780985    -1.068192243612951    -0.737218878411083
    C               -0.299275086780985     1.424807756387048    -1.036218878411083
    C               -0.745275086780985    -0.772192243612952    -1.885218878411083
    C               -0.152275086780985     0.467807756387049    -2.025218878411083
    H               -2.210275086780986    -0.342192243612951     1.131781121588917
    H               -1.193275086780985     1.868807756387049     0.867781121588917
    H               -1.955275086780985    -2.040192243612951    -0.626218878411083
    H               -0.637275086780985    -1.515192243612952    -2.664218878411083
    H               -0.344275086780985     3.509807756387048    -0.724218878411083
    H                0.310724913219015     3.023807756387048    -2.274218878411083
    H                0.409724913219015     0.689807756387049    -2.919218878411083
    H                1.317824913219015     2.888947756387048    -0.801758878411083

}
e, wfn = energy('scf', return_wfn=True)
gdma(wfn)
dmavals = variable('DMA DISTRIBUTED MULTIPOLES')
charges = np.array(dmavals)
print(charges)
np.save('SSI-041LYS-107PHE-2-dimer.npy', np.array(charges))--------------------------------------------------------------------------

*** tstart() called on ds3
*** at Sun Apr 26 23:59:52 2020

   => Loading Basis Set <=

    Name: CC-PVDZ
    Role: ORBITAL
    Keyword: BASIS
    atoms 1-3, 12-18  entry C          line   138 file /theoryfs2/ds/metcalf/miniconda2/envs/tf2gpu/share/psi4/basis/cc-pvdz.gbs 
    atoms 4-11, 19-26 entry H          line    22 file /theoryfs2/ds/metcalf/miniconda2/envs/tf2gpu/share/psi4/basis/cc-pvdz.gbs 


         ---------------------------------------------------------
                                   SCF
               by Justin Turney, Rob Parrish, Andy Simmonett
                          and Daniel G. A. Smith
                              RHF Reference
                        1 Threads,    500 MiB Core
         ---------------------------------------------------------

  ==> Geometry <==

    Molecular point group: c1
    Full point group: C1

    Geometry (in Angstrom), charge = 0, multiplicity = 1:

       Center              X                  Y                   Z               Mass       
    ------------   -----------------  -----------------  -----------------  -----------------
         C            1.187724913219    -1.282192243613     2.440781121589    12.000000000000
         C            1.154724913219    -2.341192243613     1.337781121589    12.000000000000
         C            2.087724913219    -0.075192243613     2.152781121589    12.000000000000
         H            0.173724913219    -0.912192243613     2.589781121589     1.007825032230
         H            1.523724913219    -1.734192243613     3.371781121589     1.007825032230
         H            2.156724913219    -2.728192243613     1.156781121589     1.007825032230
         H            0.822724913219    -1.870192243613     0.414781121589     1.007825032230
         H            1.770724913219     0.381807756387     1.210781121589     1.007825032230
         H            1.949724913219     0.660807756387     2.952781121589     1.007825032230
         H            0.468554913219    -3.166312243613     1.579331121589     1.007825032230
         H            3.148854913219    -0.359202243613     2.094941121589     1.007825032230
         C            0.302724913219     2.779807756387    -1.211218878411    12.000000000000
         C           -1.632275086781    -0.118192243613     0.249781121589    12.000000000000
         C           -1.057275086781     1.122807756387     0.095781121589    12.000000000000
         C           -1.494275086781    -1.068192243613    -0.737218878411    12.000000000000
         C           -0.299275086781     1.424807756387    -1.036218878411    12.000000000000
         C           -0.745275086781    -0.772192243613    -1.885218878411    12.000000000000
         C           -0.152275086781     0.467807756387    -2.025218878411    12.000000000000
         H           -2.210275086781    -0.342192243613     1.131781121589     1.007825032230
         H           -1.193275086781     1.868807756387     0.867781121589     1.007825032230
         H           -1.955275086781    -2.040192243613    -0.626218878411     1.007825032230
         H           -0.637275086781    -1.515192243613    -2.664218878411     1.007825032230
         H           -0.344275086781     3.509807756387    -0.724218878411     1.007825032230
         H            0.310724913219     3.023807756387    -2.274218878411     1.007825032230
         H            0.409724913219     0.689807756387    -2.919218878411     1.007825032230
         H            1.317824913219     2.888947756387    -0.801758878411     1.007825032230

  Running in c1 symmetry.

  Rotational constants: A =      0.05240  B =      0.02717  C =      0.02213 [cm^-1]
  Rotational constants: A =   1570.90112  B =    814.62350  C =    663.52184 [MHz]
  Nuclear repulsion =  506.419499975236818

  Charge       = 0
  Multiplicity = 1
  Electrons    = 76
  Nalpha       = 38
  Nbeta        = 38

  ==> Algorithm <==

  SCF Algorithm Type is PK.
  DIIS enabled.
  MOM disabled.
  Fractional occupation disabled.
  Guess Type is SAD.
  Energy threshold   = 1.00e-06
  Density threshold  = 1.00e-10
  Integral threshold = 0.00e+00

  ==> Primary Basis <==

  Basis Set: CC-PVDZ
    Blend: CC-PVDZ
    Number of shells: 108
    Number of basis function: 220
    Number of Cartesian functions: 230
    Spherical Harmonics?: true
    Max angular momentum: 2

  ==> Pre-Iterations <==

   -------------------------------------------------------
    Irrep   Nso     Nmo     Nalpha   Nbeta   Ndocc  Nsocc
   -------------------------------------------------------
     A        220     220       0       0       0       0
   -------------------------------------------------------
    Total     220     220      38      38      38       0
   -------------------------------------------------------

  ==> Integral Setup <==

  Using integral reordering PK algorithm.
  Sizing the integral batches needed.
  Building batch lookup table.
   Calculation information:
      Number of atoms:                  26
      Number of AO shells:             108
      Number of primitives:            300
      Number of atomic orbitals:       230
      Number of basis functions:       220

      Integral cutoff                 1.00e-12
      Number of threads:                 1

	Batch   1 pq = [       0,    9405] index = [             0,44231715] size =     44231715
	Batch   2 pq = [    9405,   13301] index = [      44231715,88464951] size =     44233236
	Batch   3 pq = [   13301,   16290] index = [      88464951,132690195] size =     44225244
	Batch   4 pq = [   16290,   18810] index = [     132690195,176917455] size =     44227260
	Batch   5 pq = [   18810,   21030] index = [     176917455,221140965] size =     44223510
	Batch   6 pq = [   21030,   23037] index = [     221140965,265363203] size =     44222238
	Batch   7 pq = [   23037,   24310] index = [     265363203,295500205] size =     30137002
  Task number: 27
  Buffer size: 11059200
  Buffer per thread: 2
  We computed 17790970 shell quartets total.
  Whereas there are 17325441 unique shell quartets.
     2.69 percent of shell quartets recomputed by reordering.

  ==> DiskJK: Disk-Based J/K Matrices <==

    J tasked:                  Yes
    K tasked:                  Yes
    wK tasked:                  No
    Memory [MiB]:              375
    Schwarz Cutoff:          1E-12

    OpenMP threads:              1

  Minimum eigenvalue in the overlap matrix is 2.9775701801E-04.
  Using Symmetric Orthogonalization.

  SCF Guess: Superposition of Atomic Densities via on-the-fly atomic UHF.

  ==> Iterations <==

                        Total Energy        Delta E     RMS |[F,P]|

   @RHF iter SAD:  -386.97949086676908   -3.86979e+02   0.00000e+00 
   @RHF iter   1:  -387.76835539537888   -7.88865e-01   2.77259e-03 DIIS
   @RHF iter   2:  -387.98829195793849   -2.19937e-01   1.18422e-03 DIIS
   @RHF iter   3:  -388.02488591839432   -3.65940e-02   2.55078e-04 DIIS
   @RHF iter   4:  -388.02781684949474   -2.93093e-03   5.72573e-05 DIIS
   @RHF iter   5:  -388.02792243627471   -1.05587e-04   1.72647e-05 DIIS
   @RHF iter   6:  -388.02793179400760   -9.35773e-06   5.21958e-06 DIIS
   @RHF iter   7:  -388.02793274126640   -9.47259e-07   1.16760e-06 DIIS
   @RHF iter   8:  -388.02793279865421   -5.73878e-08   2.84234e-07 DIIS
   @RHF iter   9:  -388.02793280509252   -6.43831e-09   1.30852e-07 DIIS
   @RHF iter  10:  -388.02793280637349   -1.28097e-09   6.38202e-08 DIIS
   @RHF iter  11:  -388.02793280688923   -5.15740e-10   2.81033e-08 DIIS
   @RHF iter  12:  -388.02793280699439   -1.05160e-10   1.22011e-08 DIIS
   @RHF iter  13:  -388.02793280700786   -1.34719e-11   3.82957e-09 DIIS
   @RHF iter  14:  -388.02793280701172   -3.86535e-12   9.57289e-10 DIIS
   @RHF iter  15:  -388.02793280701263   -9.09495e-13   3.43670e-10 DIIS
   @RHF iter  16:  -388.02793280701076    1.87583e-12   1.30725e-10 DIIS
   @RHF iter  17:  -388.02793280701133   -5.68434e-13   5.80983e-11 DIIS
  Energy and wave function converged.


  ==> Post-Iterations <==

    Orbital Energies [Eh]
    ---------------------

    Doubly Occupied:                                                      

       1A    -11.240031     2A    -11.236321     3A    -11.233046  
       4A    -11.231317     5A    -11.230113     6A    -11.229811  
       7A    -11.228783     8A    -11.211425     9A    -11.209908  
      10A    -11.204739    11A     -1.159147    12A     -1.048570  
      13A     -1.042823    14A     -1.017412    15A     -0.933162  
      16A     -0.916413    17A     -0.826649    18A     -0.799367  
      19A     -0.787360    20A     -0.694212    21A     -0.635729  
      22A     -0.630784    23A     -0.618007    24A     -0.587034  
      25A     -0.584912    26A     -0.578939    27A     -0.563755  
      28A     -0.541270    29A     -0.534607    30A     -0.524106  
      31A     -0.491208    32A     -0.486163    33A     -0.484299  
      34A     -0.465524    35A     -0.459923    36A     -0.454857  
      37A     -0.337774    38A     -0.321825  

    Virtual:                                                              

      39A      0.135019    40A      0.138878    41A      0.171889  
      42A      0.192728    43A      0.202045    44A      0.212730  
      45A      0.232163    46A      0.238833    47A      0.245832  
      48A      0.255932    49A      0.262841    50A      0.268610  
      51A      0.282162    52A      0.290824    53A      0.293509  
      54A      0.300284    55A      0.320385    56A      0.339529  
      57A      0.368349    58A      0.379794    59A      0.386180  
      60A      0.437063    61A      0.453297    62A      0.462916  
      63A      0.484145    64A      0.491581    65A      0.561576  
      66A      0.574095    67A      0.592548    68A      0.606487  
      69A      0.610042    70A      0.624459    71A      0.635908  
      72A      0.645550    73A      0.684057    74A      0.690959  
      75A      0.700497    76A      0.731772    77A      0.741825  
      78A      0.748025    79A      0.760055    80A      0.764510  
      81A      0.769790    82A      0.785235    83A      0.793164  
      84A      0.823874    85A      0.838639    86A      0.852060  
      87A      0.856760    88A      0.859196    89A      0.870404  
      90A      0.878652    91A      0.883934    92A      0.889359  
      93A      0.897935    94A      0.900773    95A      0.914098  
      96A      0.918425    97A      0.925079    98A      0.937037  
      99A      0.940943   100A      0.943282   101A      0.949808  
     102A      0.955212   103A      0.986060   104A      0.995338  
     105A      1.012261   106A      1.030206   107A      1.061340  
     108A      1.087070   109A      1.126841   110A      1.132381  
     111A      1.138727   112A      1.154280   113A      1.156550  
     114A      1.167693   115A      1.217874   116A      1.234168  
     117A      1.243893   118A      1.262038   119A      1.268948  
     120A      1.280386   121A      1.305770   122A      1.311980  
     123A      1.323661   124A      1.334771   125A      1.380924  
     126A      1.414449   127A      1.486321   128A      1.496975  
     129A      1.511755   130A      1.522054   131A      1.532708  
     132A      1.560685   133A      1.602916   134A      1.630976  
     135A      1.669513   136A      1.688913   137A      1.695975  
     138A      1.702974   139A      1.712212   140A      1.741542  
     141A      1.762923   142A      1.783621   143A      1.802075  
     144A      1.819291   145A      1.854397   146A      1.868005  
     147A      1.879313   148A      1.892211   149A      1.903081  
     150A      1.911903   151A      1.913393   152A      1.922941  
     153A      1.931700   154A      1.940656   155A      1.943286  
     156A      1.947610   157A      1.952523   158A      1.960886  
     159A      1.969930   160A      1.980148   161A      1.985260  
     162A      1.987731   163A      2.005481   164A      2.010452  
     165A      2.021018   166A      2.026312   167A      2.049502  
     168A      2.058998   169A      2.070429   170A      2.073503  
     171A      2.123415   172A      2.135900   173A      2.156483  
     174A      2.162216   175A      2.174191   176A      2.181789  
     177A      2.189199   178A      2.195597   179A      2.259864  
     180A      2.281141   181A      2.294065   182A      2.301332  
     183A      2.308355   184A      2.311678   185A      2.323301  
     186A      2.334160   187A      2.344215   188A      2.359009  
     189A      2.474652   190A      2.481178   191A      2.500988  
     192A      2.509985   193A      2.547466   194A      2.550177  
     195A      2.601759   196A      2.621449   197A      2.624799  
     198A      2.635616   199A      2.743696   200A      2.758242  
     201A      2.764566   202A      2.768407   203A      2.782060  
     204A      2.810599   205A      2.814409   206A      2.824619  
     207A      2.828533   208A      2.863189   209A      2.877962  
     210A      2.938146   211A      2.990433   212A      3.000103  
     213A      3.006791   214A      3.025197   215A      3.049586  
     216A      3.073793   217A      3.167132   218A      3.216334  
     219A      3.313770   220A      3.996156  

    Final Occupation by Irrep:
              A 
    DOCC [    38 ]

  @RHF Final Energy:  -388.02793280701133

   => Energetics <=

    Nuclear Repulsion Energy =            506.4194999752368176
    One-Electron Energy =               -1527.3322196976660052
    Two-Electron Energy =                 632.8847869154178625
    Total Energy =                       -388.0279328070113252

Computation Completed


Properties will be evaluated at   0.000000,   0.000000,   0.000000 [a0]

Properties computed using the SCF density matrix

  Nuclear Dipole Moment: [e a0]
     X:     7.2304      Y:    -1.5413      Z:     6.9004

  Electronic Dipole Moment: [e a0]
     X:    -7.2813      Y:     1.7062      Z:    -7.0100

  Dipole Moment: [e a0]
     X:    -0.0509      Y:     0.1649      Z:    -0.1096     Total:     0.2044

  Dipole Moment: [D]
     X:    -0.1294      Y:     0.4192      Z:    -0.2785     Total:     0.5196


*** tstop() called on ds3 at Mon Apr 27 00:04:19 2020
Module time:
	user time   =     123.48 seconds =       2.06 minutes
	system time =      40.65 seconds =       0.68 minutes
	total time  =        267 seconds =       4.45 minutes
Total time:
	user time   =     123.48 seconds =       2.06 minutes
	system time =      40.65 seconds =       0.68 minutes
	total time  =        267 seconds =       4.45 minutes
                                     G D M A

                                 by Anthony Stone

                           version 2.2.06, 22 June 2011

               Distributed Multipoles from Gaussian wavefunctions


Starting at 0:4:20 on 27 Apr 2020   


Using SCF density matrix from file ./SSI/SSI-041LYS-107PHE-2-dimer.test.6461.fchk


                         Distributed Multipole Analysis

Standard DMA

Positions and radii in angstrom
Multipole moments in atomic units, ea_0^k for rank k

C          x =  1.187725  y = -1.282192  z =  2.440781 angstrom
           Maximum rank =  0   Radius =  0.650 angstrom
                   Q00  =  -0.078421

C          x =  1.154725  y = -2.341192  z =  1.337781 angstrom
           Maximum rank =  0   Radius =  0.650 angstrom
                   Q00  =  -0.239423

C          x =  2.087725  y = -0.075192  z =  2.152781 angstrom
           Maximum rank =  0   Radius =  0.650 angstrom
                   Q00  =  -0.249643

H          x =  0.173725  y = -0.912192  z =  2.589781 angstrom
           Maximum rank =  0   Radius =  0.325 angstrom
                   Q00  =   0.043298

H          x =  1.523725  y = -1.734192  z =  3.371781 angstrom
           Maximum rank =  0   Radius =  0.325 angstrom
                   Q00  =   0.039846

H          x =  2.156725  y = -2.728192  z =  1.156781 angstrom
           Maximum rank =  0   Radius =  0.325 angstrom
                   Q00  =   0.071140

H          x =  0.822725  y = -1.870192  z =  0.414781 angstrom
           Maximum rank =  0   Radius =  0.325 angstrom
                   Q00  =   0.091932

H          x =  1.770725  y =  0.381808  z =  1.210781 angstrom
           Maximum rank =  0   Radius =  0.325 angstrom
                   Q00  =   0.084914

H          x =  1.949725  y =  0.660808  z =  2.952781 angstrom
           Maximum rank =  0   Radius =  0.325 angstrom
                   Q00  =   0.078343

H          x =  0.468555  y = -3.166312  z =  1.579331 angstrom
           Maximum rank =  0   Radius =  0.325 angstrom
                   Q00  =   0.078524

H          x =  3.148855  y = -0.359202  z =  2.094941 angstrom
           Maximum rank =  0   Radius =  0.325 angstrom
                   Q00  =   0.075169

C          x =  0.302725  y =  2.779808  z = -1.211219 angstrom
           Maximum rank =  0   Radius =  0.650 angstrom
                   Q00  =  -0.195665

C          x = -1.632275  y = -0.118192  z =  0.249781 angstrom
           Maximum rank =  0   Radius =  0.650 angstrom
                   Q00  =  -0.070473

C          x = -1.057275  y =  1.122808  z =  0.095781 angstrom
           Maximum rank =  0   Radius =  0.650 angstrom
                   Q00  =   0.006126

C          x = -1.494275  y = -1.068192  z = -0.737219 angstrom
           Maximum rank =  0   Radius =  0.650 angstrom
                   Q00  =  -0.082057

C          x = -0.299275  y =  1.424808  z = -1.036219 angstrom
           Maximum rank =  0   Radius =  0.650 angstrom
                   Q00  =  -0.105588

C          x = -0.745275  y = -0.772192  z = -1.885219 angstrom
           Maximum rank =  0   Radius =  0.650 angstrom
                   Q00  =  -0.064247

C          x = -0.152275  y =  0.467808  z = -2.025219 angstrom
           Maximum rank =  0   Radius =  0.650 angstrom
                   Q00  =  -0.083019

H          x = -2.210275  y = -0.342192  z =  1.131781 angstrom
           Maximum rank =  0   Radius =  0.325 angstrom
                   Q00  =   0.062617

H          x = -1.193275  y =  1.868808  z =  0.867781 angstrom
           Maximum rank =  0   Radius =  0.325 angstrom
                   Q00  =   0.055352

H          x = -1.955275  y = -2.040192  z = -0.626219 angstrom
           Maximum rank =  0   Radius =  0.325 angstrom
                   Q00  =   0.061994

H          x = -0.637275  y = -1.515192  z = -2.664219 angstrom
           Maximum rank =  0   Radius =  0.325 angstrom
                   Q00  =   0.065203

H          x = -0.344275  y =  3.509808  z = -0.724219 angstrom
           Maximum rank =  0   Radius =  0.325 angstrom
                   Q00  =   0.096510

H          x =  0.310725  y =  3.023808  z = -2.274219 angstrom
           Maximum rank =  0   Radius =  0.325 angstrom
                   Q00  =   0.096363

H          x =  0.409725  y =  0.689808  z = -2.919219 angstrom
           Maximum rank =  0   Radius =  0.325 angstrom
                   Q00  =   0.056162

H          x =  1.317825  y =  2.888948  z = -0.801759 angstrom
           Maximum rank =  0   Radius =  0.325 angstrom
                   Q00  =   0.105044

Total multipoles referred to origin at
           x =   0.000000,  y =    0.000000,  z =    0.000000 angstrom
                   Q00  =  -0.000000

Finished at 0:4:20 on 27 Apr 2020   

  DMA results are available in the Python driver through the
	  variable('DMA DISTRIBUTED MULTIPOLES')
  and
	  variable('DMA TOTAL MULTIPOLES')
  commands.


    Psi4 stopped on: Monday, 27 April 2020 12:04AM
    Psi4 wall time for execution: 0:04:27.17

*** Psi4 exiting successfully. Buy a developer a beer!
