
    -----------------------------------------------------------------------
          Psi4: An Open-Source Ab Initio Electronic Structure Package
                               Psi4 1.3.2 release

                         Git: Rev {HEAD} ecbda83 


    R. M. Parrish, L. A. Burns, D. G. A. Smith, A. C. Simmonett,
    A. E. DePrince III, E. G. Hohenstein, U. Bozkaya, A. Yu. Sokolov,
    R. Di Remigio, R. M. Richard, J. F. Gonthier, A. M. James,
    H. R. McAlexander, A. Kumar, M. Saitow, X. Wang, B. P. Pritchard,
    P. Verma, H. F. Schaefer III, K. Patkowski, R. A. King, E. F. Valeev,
    F. A. Evangelista, J. M. Turney, T. D. Crawford, and C. D. Sherrill,
    J. Chem. Theory Comput. 13(7) pp 3185--3197 (2017).
    (doi: 10.1021/acs.jctc.7b00174)


                         Additional Contributions by
    P. Kraus, H. Kruse, M. H. Lechner, M. C. Schieber, R. A. Shaw,
    A. Alenaizan, R. Galvelis, Z. L. Glick, S. Lehtola, and J. P. Misiewicz

    -----------------------------------------------------------------------


    Psi4 started on: Monday, 27 April 2020 08:52PM

    Process ID: 19499
    Host:       ds3
    PSIDATADIR: /theoryfs2/ds/metcalf/miniconda2/envs/tf2gpu/share/psi4
    Memory:     500.0 MiB
    Threads:    1
    
  ==> Input File <==

--------------------------------------------------------------------------
import numpy as np
set {scf_type pk
basis cc-pvdz
d_convergence 10
gdma_switch   0
gdma_limit    0
gdma_origin   [ 0.0,  0.0,  0.0 ]
}
molecule test {
    units Angstrom
    0 1
    --
    0 1
    C                1.232346541892589    -2.136417034769468    -0.224648439323783
    C                0.713346541892589    -2.489417034769468    -1.622648439323783
    H                1.947346541892589    -1.316417034769468    -0.286648439323783
    H                0.409346541892589    -1.836417034769468     0.422351560676217
    H                1.718346541892589    -3.001417034769468     0.229351560676217
    H                0.359346541892589    -1.587417034769468    -2.118648439323783
    H                1.531686541892589    -2.947487034769468    -2.197528439323783
    H               -0.133913458107411    -3.171137034769469    -1.457098439323783
    C               -0.546653458107411     1.160582965230532     0.268351560676217
    C                0.274346541892589     2.409582965230532     0.376351560676217
    C               -1.708653458107411     1.133582965230532     1.214351560676217
    H               -0.939653458107411     1.075582965230532    -0.746648439323783
    H                0.093346541892589     0.305582965230532     0.464351560676217
    H               -0.374653458107411     3.287582965230532     0.354351560676217
    H               -1.342653458107411     1.127582965230532     2.242351560676217
    H               -2.293653458107411     2.045582965230532     1.071351560676217
    H                0.956266541892589     2.414932965230532    -0.486758439323783
    H                0.851256541892589     2.412492965230532     1.312921560676217
    H               -2.362493458107411     0.263232965230532     1.056301560676217

}
e, wfn = energy('scf', return_wfn=True)
gdma(wfn)
dmavals = variable('DMA DISTRIBUTED MULTIPOLES')
charges = np.array(dmavals)
print(charges)
np.save('SSI-007VAL-026GLU-1-dimer.npy', np.array(charges))--------------------------------------------------------------------------

*** tstart() called on ds3
*** at Mon Apr 27 20:52:06 2020

   => Loading Basis Set <=

    Name: CC-PVDZ
    Role: ORBITAL
    Keyword: BASIS
    atoms 1-2, 9-11  entry C          line   138 file /theoryfs2/ds/metcalf/miniconda2/envs/tf2gpu/share/psi4/basis/cc-pvdz.gbs 
    atoms 3-8, 12-19 entry H          line    22 file /theoryfs2/ds/metcalf/miniconda2/envs/tf2gpu/share/psi4/basis/cc-pvdz.gbs 


         ---------------------------------------------------------
                                   SCF
               by Justin Turney, Rob Parrish, Andy Simmonett
                          and Daniel G. A. Smith
                              RHF Reference
                        1 Threads,    500 MiB Core
         ---------------------------------------------------------

  ==> Geometry <==

    Molecular point group: c1
    Full point group: C1

    Geometry (in Angstrom), charge = 0, multiplicity = 1:

       Center              X                  Y                   Z               Mass       
    ------------   -----------------  -----------------  -----------------  -----------------
         C            1.232346541893    -2.136417034769    -0.224648439324    12.000000000000
         C            0.713346541893    -2.489417034769    -1.622648439324    12.000000000000
         H            1.947346541893    -1.316417034769    -0.286648439324     1.007825032230
         H            0.409346541893    -1.836417034769     0.422351560676     1.007825032230
         H            1.718346541893    -3.001417034769     0.229351560676     1.007825032230
         H            0.359346541893    -1.587417034769    -2.118648439324     1.007825032230
         H            1.531686541893    -2.947487034769    -2.197528439324     1.007825032230
         H           -0.133913458107    -3.171137034769    -1.457098439324     1.007825032230
         C           -0.546653458107     1.160582965231     0.268351560676    12.000000000000
         C            0.274346541893     2.409582965231     0.376351560676    12.000000000000
         C           -1.708653458107     1.133582965231     1.214351560676    12.000000000000
         H           -0.939653458107     1.075582965231    -0.746648439324     1.007825032230
         H            0.093346541893     0.305582965231     0.464351560676     1.007825032230
         H           -0.374653458107     3.287582965231     0.354351560676     1.007825032230
         H           -1.342653458107     1.127582965231     2.242351560676     1.007825032230
         H           -2.293653458107     2.045582965231     1.071351560676     1.007825032230
         H            0.956266541893     2.414932965231    -0.486758439324     1.007825032230
         H            0.851256541893     2.412492965231     1.312921560676     1.007825032230
         H           -2.362493458107     0.263232965231     1.056301560676     1.007825032230

  Running in c1 symmetry.

  Rotational constants: A =      0.20864  B =      0.04190  C =      0.03879 [cm^-1]
  Rotational constants: A =   6254.83887  B =   1256.27934  C =   1162.97116 [MHz]
  Nuclear repulsion =  179.535993538381945

  Charge       = 0
  Multiplicity = 1
  Electrons    = 44
  Nalpha       = 22
  Nbeta        = 22

  ==> Algorithm <==

  SCF Algorithm Type is PK.
  DIIS enabled.
  MOM disabled.
  Fractional occupation disabled.
  Guess Type is SAD.
  Energy threshold   = 1.00e-06
  Density threshold  = 1.00e-10
  Integral threshold = 0.00e+00

  ==> Primary Basis <==

  Basis Set: CC-PVDZ
    Blend: CC-PVDZ
    Number of shells: 72
    Number of basis function: 140
    Number of Cartesian functions: 145
    Spherical Harmonics?: true
    Max angular momentum: 2

  ==> Pre-Iterations <==

   -------------------------------------------------------
    Irrep   Nso     Nmo     Nalpha   Nbeta   Ndocc  Nsocc
   -------------------------------------------------------
     A        140     140       0       0       0       0
   -------------------------------------------------------
    Total     140     140      22      22      22       0
   -------------------------------------------------------

  ==> Integral Setup <==

  Using integral reordering PK algorithm.
  Sizing the integral batches needed.
  Building batch lookup table.
   Calculation information:
      Number of atoms:                  19
      Number of AO shells:              72
      Number of primitives:            180
      Number of atomic orbitals:       145
      Number of basis functions:       140

      Integral cutoff                 1.00e-12
      Number of threads:                 1

	Batch   1 pq = [       0,    9405] index = [             0,44231715] size =     44231715
	Batch   2 pq = [    9405,    9870] index = [      44231715,48713385] size =      4481670
  Task number: 5
  Buffer size: 11059200
  Buffer per thread: 2
  We computed 2932425 shell quartets total.
  Whereas there are 3454506 unique shell quartets.

  ==> DiskJK: Disk-Based J/K Matrices <==

    J tasked:                  Yes
    K tasked:                  Yes
    wK tasked:                  No
    Memory [MiB]:              375
    Schwarz Cutoff:          1E-12

    OpenMP threads:              1

  Minimum eigenvalue in the overlap matrix is 4.9583426016E-03.
  Using Symmetric Orthogonalization.

  SCF Guess: Superposition of Atomic Densities via on-the-fly atomic UHF.

  ==> Iterations <==

                        Total Energy        Delta E     RMS |[F,P]|

   @RHF iter SAD:  -196.47446763472496   -1.96474e+02   0.00000e+00 
   @RHF iter   1:  -197.30254670315591   -8.28079e-01   3.87151e-03 DIIS
   @RHF iter   2:  -197.46660845864437   -1.64062e-01   1.68754e-03 DIIS
   @RHF iter   3:  -197.49654653278645   -2.99381e-02   3.30664e-04 DIIS
   @RHF iter   4:  -197.49882216672739   -2.27563e-03   5.13738e-05 DIIS
   @RHF iter   5:  -197.49886442796611   -4.22612e-05   1.55389e-05 DIIS
   @RHF iter   6:  -197.49886818869038   -3.76072e-06   2.39773e-06 DIIS
   @RHF iter   7:  -197.49886829704940   -1.08359e-07   4.78174e-07 DIIS
   @RHF iter   8:  -197.49886830140991   -4.36052e-09   1.23624e-07 DIIS
   @RHF iter   9:  -197.49886830169908   -2.89162e-10   3.61059e-08 DIIS
   @RHF iter  10:  -197.49886830172866   -2.95870e-11   7.79225e-09 DIIS
   @RHF iter  11:  -197.49886830173023   -1.56319e-12   1.53869e-09 DIIS
   @RHF iter  12:  -197.49886830172983    3.97904e-13   3.00422e-10 DIIS
   @RHF iter  13:  -197.49886830173057   -7.38964e-13   4.81221e-11 DIIS
  Energy and wave function converged.


  ==> Post-Iterations <==

    Orbital Energies [Eh]
    ---------------------

    Doubly Occupied:                                                      

       1A    -11.220218     2A    -11.216308     3A    -11.215161  
       4A    -11.213241     5A    -11.212093     6A     -1.064314  
       7A     -1.019072     8A     -0.925695     9A     -0.835806  
      10A     -0.792702    11A     -0.632835    12A     -0.603523  
      13A     -0.601778    14A     -0.595696    15A     -0.552674  
      16A     -0.529664    17A     -0.498241    18A     -0.490866  
      19A     -0.484661    20A     -0.472730    21A     -0.468000  
      22A     -0.460955  

    Virtual:                                                              

      23A      0.167565    24A      0.196195    25A      0.212074  
      26A      0.220207    27A      0.237662    28A      0.251152  
      29A      0.259089    30A      0.266199    31A      0.272158  
      32A      0.285918    33A      0.299786    34A      0.309726  
      35A      0.311260    36A      0.343699    37A      0.372503  
      38A      0.392735    39A      0.437957    40A      0.571585  
      41A      0.584631    42A      0.601738    43A      0.609237  
      44A      0.616646    45A      0.619451    46A      0.625566  
      47A      0.657431    48A      0.682398    49A      0.769687  
      50A      0.794414    51A      0.820877    52A      0.841047  
      53A      0.868753    54A      0.875280    55A      0.878879  
      56A      0.891854    57A      0.892290    58A      0.895549  
      59A      0.902373    60A      0.906467    61A      0.909470  
      62A      0.926670    63A      0.930889    64A      0.937446  
      65A      0.960600    66A      0.974016    67A      0.991462  
      68A      1.022595    69A      1.117123    70A      1.130588  
      71A      1.132882    72A      1.158646    73A      1.236746  
      74A      1.271671    75A      1.391782    76A      1.477218  
      77A      1.482429    78A      1.485628    79A      1.506790  
      80A      1.524883    81A      1.571684    82A      1.633529  
      83A      1.666289    84A      1.673426    85A      1.690411  
      86A      1.696097    87A      1.704837    88A      1.838467  
      89A      1.858262    90A      1.878514    91A      1.885159  
      92A      1.887872    93A      1.898756    94A      1.912581  
      95A      1.926435    96A      1.939246    97A      1.946540  
      98A      1.948250    99A      1.951699   100A      1.964926  
     101A      1.973077   102A      1.978696   103A      1.996760  
     104A      2.008575   105A      2.015197   106A      2.040344  
     107A      2.079371   108A      2.116078   109A      2.144764  
     110A      2.152895   111A      2.166469   112A      2.265022  
     113A      2.292902   114A      2.305240   115A      2.322314  
     116A      2.331039   117A      2.355296   118A      2.451006  
     119A      2.460317   120A      2.499603   121A      2.537402  
     122A      2.573717   123A      2.579314   124A      2.603182  
     125A      2.632387   126A      2.640018   127A      2.754339  
     128A      2.761121   129A      2.774393   130A      2.781448  
     131A      2.794086   132A      2.814668   133A      2.824425  
     134A      2.844427   135A      2.930386   136A      2.944567  
     137A      2.953112   138A      2.983504   139A      2.988249  
     140A      3.109805  

    Final Occupation by Irrep:
              A 
    DOCC [    22 ]

  @RHF Final Energy:  -197.49886830173057

   => Energetics <=

    Nuclear Repulsion Energy =            179.5359935383819447
    One-Electron Energy =                -619.8572628916144822
    Two-Electron Energy =                 242.8224010515019700
    Total Energy =                       -197.4988683017305675

Computation Completed


Properties will be evaluated at   0.000000,   0.000000,   0.000000 [a0]

Properties computed using the SCF density matrix

  Nuclear Dipole Moment: [e a0]
     X:     0.3937      Y:    -0.8697      Z:    -0.1312

  Electronic Dipole Moment: [e a0]
     X:    -0.3763      Y:     0.8324      Z:     0.1150

  Dipole Moment: [e a0]
     X:     0.0174      Y:    -0.0373      Z:    -0.0162     Total:     0.0442

  Dipole Moment: [D]
     X:     0.0441      Y:    -0.0948      Z:    -0.0412     Total:     0.1123


*** tstop() called on ds3 at Mon Apr 27 20:52:40 2020
Module time:
	user time   =      15.78 seconds =       0.26 minutes
	system time =       6.00 seconds =       0.10 minutes
	total time  =         34 seconds =       0.57 minutes
Total time:
	user time   =      15.78 seconds =       0.26 minutes
	system time =       6.00 seconds =       0.10 minutes
	total time  =         34 seconds =       0.57 minutes
                                     G D M A

                                 by Anthony Stone

                           version 2.2.06, 22 June 2011

               Distributed Multipoles from Gaussian wavefunctions


Starting at 20:52:40 on 27 Apr 2020 


Using SCF density matrix from file ./SSI/SSI-007VAL-026GLU-1-dimer.test.19499.fchk


                         Distributed Multipole Analysis

Standard DMA

Positions and radii in angstrom
Multipole moments in atomic units, ea_0^k for rank k

C          x =  1.232347  y = -2.136417  z = -0.224648 angstrom
           Maximum rank =  0   Radius =  0.650 angstrom
                   Q00  =  -0.243935

C          x =  0.713347  y = -2.489417  z = -1.622648 angstrom
           Maximum rank =  0   Radius =  0.650 angstrom
                   Q00  =  -0.227522

H          x =  1.947347  y = -1.316417  z = -0.286648 angstrom
           Maximum rank =  0   Radius =  0.325 angstrom
                   Q00  =   0.076099

H          x =  0.409347  y = -1.836417  z =  0.422352 angstrom
           Maximum rank =  0   Radius =  0.325 angstrom
                   Q00  =   0.078784

H          x =  1.718347  y = -3.001417  z =  0.229352 angstrom
           Maximum rank =  0   Radius =  0.325 angstrom
                   Q00  =   0.077973

H          x =  0.359347  y = -1.587417  z = -2.118648 angstrom
           Maximum rank =  0   Radius =  0.325 angstrom
                   Q00  =   0.082394

H          x =  1.531687  y = -2.947487  z = -2.197528 angstrom
           Maximum rank =  0   Radius =  0.325 angstrom
                   Q00  =   0.080480

H          x = -0.133913  y = -3.171137  z = -1.457098 angstrom
           Maximum rank =  0   Radius =  0.325 angstrom
                   Q00  =   0.075579

C          x = -0.546653  y =  1.160583  z =  0.268352 angstrom
           Maximum rank =  0   Radius =  0.650 angstrom
                   Q00  =  -0.078191

C          x =  0.274347  y =  2.409583  z =  0.376352 angstrom
           Maximum rank =  0   Radius =  0.650 angstrom
                   Q00  =  -0.237289

C          x = -1.708653  y =  1.133583  z =  1.214352 angstrom
           Maximum rank =  0   Radius =  0.650 angstrom
                   Q00  =  -0.225319

H          x = -0.939653  y =  1.075583  z = -0.746648 angstrom
           Maximum rank =  0   Radius =  0.325 angstrom
                   Q00  =   0.037052

H          x =  0.093347  y =  0.305583  z =  0.464352 angstrom
           Maximum rank =  0   Radius =  0.325 angstrom
                   Q00  =   0.054430

H          x = -0.374653  y =  3.287583  z =  0.354352 angstrom
           Maximum rank =  0   Radius =  0.325 angstrom
                   Q00  =   0.073727

H          x = -1.342653  y =  1.127583  z =  2.242352 angstrom
           Maximum rank =  0   Radius =  0.325 angstrom
                   Q00  =   0.070742

H          x = -2.293653  y =  2.045583  z =  1.071352 angstrom
           Maximum rank =  0   Radius =  0.325 angstrom
                   Q00  =   0.070895

H          x =  0.956267  y =  2.414933  z = -0.486758 angstrom
           Maximum rank =  0   Radius =  0.325 angstrom
                   Q00  =   0.078513

H          x =  0.851257  y =  2.412493  z =  1.312922 angstrom
           Maximum rank =  0   Radius =  0.325 angstrom
                   Q00  =   0.074060

H          x = -2.362493  y =  0.263233  z =  1.056302 angstrom
           Maximum rank =  0   Radius =  0.325 angstrom
                   Q00  =   0.081526

Total multipoles referred to origin at
           x =   0.000000,  y =    0.000000,  z =    0.000000 angstrom
                   Q00  =  -0.000000

Finished at 20:52:40 on 27 Apr 2020 

  DMA results are available in the Python driver through the
	  variable('DMA DISTRIBUTED MULTIPOLES')
  and
	  variable('DMA TOTAL MULTIPOLES')
  commands.


    Psi4 stopped on: Monday, 27 April 2020 08:52PM
    Psi4 wall time for execution: 0:00:33.78

*** Psi4 exiting successfully. Buy a developer a beer!
