
    -----------------------------------------------------------------------
          Psi4: An Open-Source Ab Initio Electronic Structure Package
                               Psi4 1.3.2 release

                         Git: Rev {HEAD} ecbda83 


    R. M. Parrish, L. A. Burns, D. G. A. Smith, A. C. Simmonett,
    A. E. DePrince III, E. G. Hohenstein, U. Bozkaya, A. Yu. Sokolov,
    R. Di Remigio, R. M. Richard, J. F. Gonthier, A. M. James,
    H. R. McAlexander, A. Kumar, M. Saitow, X. Wang, B. P. Pritchard,
    P. Verma, H. F. Schaefer III, K. Patkowski, R. A. King, E. F. Valeev,
    F. A. Evangelista, J. M. Turney, T. D. Crawford, and C. D. Sherrill,
    J. Chem. Theory Comput. 13(7) pp 3185--3197 (2017).
    (doi: 10.1021/acs.jctc.7b00174)


                         Additional Contributions by
    P. Kraus, H. Kruse, M. H. Lechner, M. C. Schieber, R. A. Shaw,
    A. Alenaizan, R. Galvelis, Z. L. Glick, S. Lehtola, and J. P. Misiewicz

    -----------------------------------------------------------------------


    Psi4 started on: Monday, 27 April 2020 10:30PM

    Process ID: 31123
    Host:       ds3
    PSIDATADIR: /theoryfs2/ds/metcalf/miniconda2/envs/tf2gpu/share/psi4
    Memory:     500.0 MiB
    Threads:    1
    
  ==> Input File <==

--------------------------------------------------------------------------
import numpy as np
set {scf_type pk
basis cc-pvdz
d_convergence 10
gdma_switch   0
gdma_limit    0
gdma_origin   [ 0.0,  0.0,  0.0 ]
}
molecule test {
    units Angstrom
    0 1
    --
    0 1
    C                0.149248289742754    -2.163940148271963    -1.747813767736624
    C               -1.101751710257246     1.039059851728037    -0.064813767736624
    C               -1.038751710257246    -0.290940148271963    -0.516813767736624
    C               -0.116751710257246     1.949059851728037    -0.407813767736624
    C                0.017248289742754    -0.725940148271963    -1.319813767736624
    C                0.932248289742754     1.525059851728037    -1.221813767736624
    C                0.997248289742754     0.191059851728037    -1.668813767736623
    H               -1.924751710257246     1.357059851728037     0.559186232263376
    H               -1.807751710257246    -0.989940148271963    -0.235813767736624
    H               -0.159751710257246     2.971059851728037    -0.053813767736624
    H                1.701248289742753     2.229059851728037    -1.505813767736624
    H                0.810248289742754    -2.183940148271962    -2.615813767736623
    H               -0.842751710257246    -2.496940148271963    -2.050813767736624
    H                1.818248289742754    -0.137940148271963    -2.288813767736624
    H                0.486658289742754    -2.823020148271963    -0.934323767736624
    C               -0.267751710257246     0.121059851728037     3.282186232263377
    C                0.391248289742754    -1.201940148271963     2.880186232263377
    H                0.286248289742754     0.566059851728037     4.109186232263377
    H               -0.263751710257246     0.807059851728037     2.437186232263376
    H               -1.297751710257246    -0.053940148271963     3.590186232263376
    H               -0.166751710257246    -1.637940148271963     2.050186232263376
    H                0.391248289742754    -1.902250148271963     3.728456232263377
    H                1.419028289742754    -0.973620148271963     2.561536232263377

}
e, wfn = energy('scf', return_wfn=True)
gdma(wfn)
dmavals = variable('DMA DISTRIBUTED MULTIPOLES')
charges = np.array(dmavals)
print(charges)
np.save('SSI-165PHE-169VAL-1-dimer.npy', np.array(charges))--------------------------------------------------------------------------

*** tstart() called on ds3
*** at Mon Apr 27 22:30:54 2020

   => Loading Basis Set <=

    Name: CC-PVDZ
    Role: ORBITAL
    Keyword: BASIS
    atoms 1-7, 16-17  entry C          line   138 file /theoryfs2/ds/metcalf/miniconda2/envs/tf2gpu/share/psi4/basis/cc-pvdz.gbs 
    atoms 8-15, 18-23 entry H          line    22 file /theoryfs2/ds/metcalf/miniconda2/envs/tf2gpu/share/psi4/basis/cc-pvdz.gbs 


         ---------------------------------------------------------
                                   SCF
               by Justin Turney, Rob Parrish, Andy Simmonett
                          and Daniel G. A. Smith
                              RHF Reference
                        1 Threads,    500 MiB Core
         ---------------------------------------------------------

  ==> Geometry <==

    Molecular point group: c1
    Full point group: C1

    Geometry (in Angstrom), charge = 0, multiplicity = 1:

       Center              X                  Y                   Z               Mass       
    ------------   -----------------  -----------------  -----------------  -----------------
         C            0.149248289743    -2.163940148272    -1.747813767737    12.000000000000
         C           -1.101751710257     1.039059851728    -0.064813767737    12.000000000000
         C           -1.038751710257    -0.290940148272    -0.516813767737    12.000000000000
         C           -0.116751710257     1.949059851728    -0.407813767737    12.000000000000
         C            0.017248289743    -0.725940148272    -1.319813767737    12.000000000000
         C            0.932248289743     1.525059851728    -1.221813767737    12.000000000000
         C            0.997248289743     0.191059851728    -1.668813767737    12.000000000000
         H           -1.924751710257     1.357059851728     0.559186232263     1.007825032230
         H           -1.807751710257    -0.989940148272    -0.235813767737     1.007825032230
         H           -0.159751710257     2.971059851728    -0.053813767737     1.007825032230
         H            1.701248289743     2.229059851728    -1.505813767737     1.007825032230
         H            0.810248289743    -2.183940148272    -2.615813767737     1.007825032230
         H           -0.842751710257    -2.496940148272    -2.050813767737     1.007825032230
         H            1.818248289743    -0.137940148272    -2.288813767737     1.007825032230
         H            0.486658289743    -2.823020148272    -0.934323767737     1.007825032230
         C           -0.267751710257     0.121059851728     3.282186232263    12.000000000000
         C            0.391248289743    -1.201940148272     2.880186232263    12.000000000000
         H            0.286248289743     0.566059851728     4.109186232263     1.007825032230
         H           -0.263751710257     0.807059851728     2.437186232263     1.007825032230
         H           -1.297751710257    -0.053940148272     3.590186232263     1.007825032230
         H           -0.166751710257    -1.637940148272     2.050186232263     1.007825032230
         H            0.391248289743    -1.902250148272     3.728456232263     1.007825032230
         H            1.419028289743    -0.973620148272     2.561536232263     1.007825032230

  Running in c1 symmetry.

  Rotational constants: A =      0.06016  B =      0.03397  C =      0.02637 [cm^-1]
  Rotational constants: A =   1803.41637  B =   1018.49749  C =    790.51380 [MHz]
  Nuclear repulsion =  417.731515170864327

  Charge       = 0
  Multiplicity = 1
  Electrons    = 68
  Nalpha       = 34
  Nbeta        = 34

  ==> Algorithm <==

  SCF Algorithm Type is PK.
  DIIS enabled.
  MOM disabled.
  Fractional occupation disabled.
  Guess Type is SAD.
  Energy threshold   = 1.00e-06
  Density threshold  = 1.00e-10
  Integral threshold = 0.00e+00

  ==> Primary Basis <==

  Basis Set: CC-PVDZ
    Blend: CC-PVDZ
    Number of shells: 96
    Number of basis function: 196
    Number of Cartesian functions: 205
    Spherical Harmonics?: true
    Max angular momentum: 2

  ==> Pre-Iterations <==

   -------------------------------------------------------
    Irrep   Nso     Nmo     Nalpha   Nbeta   Ndocc  Nsocc
   -------------------------------------------------------
     A        196     196       0       0       0       0
   -------------------------------------------------------
    Total     196     196      34      34      34       0
   -------------------------------------------------------

  ==> Integral Setup <==

  Using integral reordering PK algorithm.
  Sizing the integral batches needed.
  Building batch lookup table.
   Calculation information:
      Number of atoms:                  23
      Number of AO shells:              96
      Number of primitives:            268
      Number of atomic orbitals:       205
      Number of basis functions:       196

      Integral cutoff                 1.00e-12
      Number of threads:                 1

	Batch   1 pq = [       0,    9405] index = [             0,44231715] size =     44231715
	Batch   2 pq = [    9405,   13301] index = [      44231715,88464951] size =     44233236
	Batch   3 pq = [   13301,   16290] index = [      88464951,132690195] size =     44225244
	Batch   4 pq = [   16290,   18810] index = [     132690195,176917455] size =     44227260
	Batch   5 pq = [   18810,   19306] index = [     176917455,186370471] size =      9453016
  Task number: 17
  Buffer size: 11059200
  Buffer per thread: 2
  We computed 10665157 shell quartets total.
  Whereas there are 10841496 unique shell quartets.

  ==> DiskJK: Disk-Based J/K Matrices <==

    J tasked:                  Yes
    K tasked:                  Yes
    wK tasked:                  No
    Memory [MiB]:              375
    Schwarz Cutoff:          1E-12

    OpenMP threads:              1

  Minimum eigenvalue in the overlap matrix is 3.1338926074E-04.
  Using Symmetric Orthogonalization.

  SCF Guess: Superposition of Atomic Densities via on-the-fly atomic UHF.

  ==> Iterations <==

                        Total Energy        Delta E     RMS |[F,P]|

   @RHF iter SAD:  -347.85198939679827   -3.47852e+02   0.00000e+00 
   @RHF iter   1:  -348.76587969972911   -9.13890e-01   2.88592e-03 DIIS
   @RHF iter   2:  -348.95690872863565   -1.91029e-01   1.20152e-03 DIIS
   @RHF iter   3:  -348.98710823251429   -3.01995e-02   2.59879e-04 DIIS
   @RHF iter   4:  -348.98958820175994   -2.47997e-03   5.46855e-05 DIIS
   @RHF iter   5:  -348.98966577000408   -7.75682e-05   1.89311e-05 DIIS
   @RHF iter   6:  -348.98967451073406   -8.74073e-06   5.05424e-06 DIIS
   @RHF iter   7:  -348.98967526599978   -7.55266e-07   1.29561e-06 DIIS
   @RHF iter   8:  -348.98967533002411   -6.40243e-08   3.73581e-07 DIIS
   @RHF iter   9:  -348.98967534152888   -1.15048e-08   1.70556e-07 DIIS
   @RHF iter  10:  -348.98967534469313   -3.16425e-09   8.58216e-08 DIIS
   @RHF iter  11:  -348.98967534559443   -9.01309e-10   2.97916e-08 DIIS
   @RHF iter  12:  -348.98967534567834   -8.39009e-11   1.31928e-08 DIIS
   @RHF iter  13:  -348.98967534568669   -8.35598e-12   4.52225e-09 DIIS
   @RHF iter  14:  -348.98967534568783   -1.13687e-12   1.14200e-09 DIIS
   @RHF iter  15:  -348.98967534568857   -7.38964e-13   5.11287e-10 DIIS
   @RHF iter  16:  -348.98967534568777    7.95808e-13   2.54743e-10 DIIS
   @RHF iter  17:  -348.98967534569050   -2.72848e-12   9.07357e-11 DIIS
  Energy and wave function converged.


  ==> Post-Iterations <==

    Orbital Energies [Eh]
    ---------------------

    Doubly Occupied:                                                      

       1A    -11.240627     2A    -11.238492     3A    -11.237396  
       4A    -11.232415     5A    -11.232174     6A    -11.231466  
       7A    -11.231100     8A    -11.212144     9A    -11.207757  
      10A     -1.151999    11A     -1.047916    12A     -1.011209  
      13A     -1.006392    14A     -0.933229    15A     -0.830127  
      16A     -0.826061    17A     -0.792916    18A     -0.691432  
      19A     -0.632507    20A     -0.630941    21A     -0.593486  
      22A     -0.592147    23A     -0.578445    24A     -0.577938  
      25A     -0.564624    26A     -0.539596    27A     -0.492742  
      28A     -0.486551    29A     -0.485233    30A     -0.481273  
      31A     -0.478853    32A     -0.475677    33A     -0.328864  
      34A     -0.324739  

    Virtual:                                                              

      35A      0.129434    36A      0.141812    37A      0.173040  
      38A      0.196805    39A      0.202427    40A      0.220248  
      41A      0.234202    42A      0.244043    43A      0.255246  
      44A      0.264936    45A      0.267614    46A      0.276551  
      47A      0.284370    48A      0.295976    49A      0.316841  
      50A      0.335486    51A      0.361870    52A      0.373703  
      53A      0.402935    54A      0.448564    55A      0.461818  
      56A      0.476530    57A      0.491548    58A      0.563616  
      59A      0.586428    60A      0.598997    61A      0.603468  
      62A      0.618852    63A      0.633990    64A      0.665064  
      65A      0.672406    66A      0.683991    67A      0.690893  
      68A      0.703968    69A      0.727836    70A      0.743567  
      71A      0.749442    72A      0.755436    73A      0.758088  
      74A      0.773710    75A      0.792081    76A      0.833961  
      77A      0.840245    78A      0.852691    79A      0.857473  
      80A      0.865709    81A      0.879759    82A      0.891142  
      83A      0.894741    84A      0.897766    85A      0.909203  
      86A      0.911050    87A      0.919097    88A      0.922250  
      89A      0.938497    90A      0.947182    91A      0.954589  
      92A      0.983638    93A      1.005792    94A      1.012917  
      95A      1.035439    96A      1.059070    97A      1.118758  
      98A      1.122259    99A      1.134564   100A      1.142765  
     101A      1.155943   102A      1.175682   103A      1.195605  
     104A      1.236249   105A      1.243491   106A      1.249594  
     107A      1.257372   108A      1.281222   109A      1.300012  
     110A      1.316171   111A      1.322725   112A      1.327796  
     113A      1.413764   114A      1.480448   115A      1.499929  
     116A      1.515392   117A      1.521449   118A      1.553284  
     119A      1.577089   120A      1.607343   121A      1.662477  
     122A      1.683915   123A      1.698084   124A      1.703358  
     125A      1.730906   126A      1.747142   127A      1.783629  
     128A      1.797604   129A      1.803338   130A      1.855818  
     131A      1.866623   132A      1.868194   133A      1.881158  
     134A      1.895187   135A      1.901550   136A      1.910951  
     137A      1.916591   138A      1.925914   139A      1.943128  
     140A      1.949268   141A      1.953538   142A      1.956026  
     143A      1.965856   144A      1.974992   145A      1.986622  
     146A      1.993341   147A      1.996649   148A      2.008285  
     149A      2.041926   150A      2.052469   151A      2.073772  
     152A      2.108671   153A      2.117051   154A      2.133968  
     155A      2.138055   156A      2.148275   157A      2.164911  
     158A      2.173829   159A      2.184631   160A      2.233166  
     161A      2.271126   162A      2.285677   163A      2.299035  
     164A      2.301720   165A      2.310672   166A      2.331337  
     167A      2.337379   168A      2.454324   169A      2.472044  
     170A      2.473120   171A      2.496210   172A      2.514494  
     173A      2.532589   174A      2.575171   175A      2.593531  
     176A      2.620370   177A      2.732238   178A      2.744940  
     179A      2.774040   180A      2.779429   181A      2.783750  
     182A      2.808651   183A      2.816485   184A      2.836709  
     185A      2.849941   186A      2.855410   187A      2.882853  
     188A      2.966343   189A      2.968811   190A      2.987851  
     191A      3.000139   192A      3.053975   193A      3.143681  
     194A      3.190692   195A      3.297041   196A      3.955315  

    Final Occupation by Irrep:
              A 
    DOCC [    34 ]

  @RHF Final Energy:  -348.98967534569050

   => Energetics <=

    Nuclear Repulsion Energy =            417.7315151708643270
    One-Electron Energy =               -1298.2054455830348161
    Two-Electron Energy =                 531.4842550664799319
    Total Energy =                       -348.9896753456905572

Computation Completed


Properties will be evaluated at   0.000000,   0.000000,   0.000000 [a0]

Properties computed using the SCF density matrix

  Nuclear Dipole Moment: [e a0]
     X:     0.4215      Y:    -4.9397      Z:     8.7660

  Electronic Dipole Moment: [e a0]
     X:    -0.4091      Y:     4.8469      Z:    -8.8738

  Dipole Moment: [e a0]
     X:     0.0124      Y:    -0.0929      Z:    -0.1078     Total:     0.1428

  Dipole Moment: [D]
     X:     0.0315      Y:    -0.2361      Z:    -0.2740     Total:     0.3630


*** tstop() called on ds3 at Mon Apr 27 22:32:37 2020
Module time:
	user time   =      77.45 seconds =       1.29 minutes
	system time =      30.37 seconds =       0.51 minutes
	total time  =        103 seconds =       1.72 minutes
Total time:
	user time   =      77.45 seconds =       1.29 minutes
	system time =      30.37 seconds =       0.51 minutes
	total time  =        103 seconds =       1.72 minutes
                                     G D M A

                                 by Anthony Stone

                           version 2.2.06, 22 June 2011

               Distributed Multipoles from Gaussian wavefunctions


Starting at 22:32:37 on 27 Apr 2020 


Using SCF density matrix from file ./SSI/SSI-165PHE-169VAL-1-dimer.test.31123.fchk


                         Distributed Multipole Analysis

Standard DMA

Positions and radii in angstrom
Multipole moments in atomic units, ea_0^k for rank k

C          x =  0.149248  y = -2.163940  z = -1.747814 angstrom
           Maximum rank =  0   Radius =  0.650 angstrom
                   Q00  =  -0.193059

C          x = -1.101752  y =  1.039060  z = -0.064814 angstrom
           Maximum rank =  0   Radius =  0.650 angstrom
                   Q00  =  -0.079113

C          x = -1.038752  y = -0.290940  z = -0.516814 angstrom
           Maximum rank =  0   Radius =  0.650 angstrom
                   Q00  =  -0.007301

C          x = -0.116752  y =  1.949060  z = -0.407814 angstrom
           Maximum rank =  0   Radius =  0.650 angstrom
                   Q00  =  -0.087687

C          x =  0.017248  y = -0.725940  z = -1.319814 angstrom
           Maximum rank =  0   Radius =  0.650 angstrom
                   Q00  =  -0.103883

C          x =  0.932248  y =  1.525060  z = -1.221814 angstrom
           Maximum rank =  0   Radius =  0.650 angstrom
                   Q00  =  -0.057633

C          x =  0.997248  y =  0.191060  z = -1.668814 angstrom
           Maximum rank =  0   Radius =  0.650 angstrom
                   Q00  =  -0.084405

H          x = -1.924752  y =  1.357060  z =  0.559186 angstrom
           Maximum rank =  0   Radius =  0.325 angstrom
                   Q00  =   0.065715

H          x = -1.807752  y = -0.989940  z = -0.235814 angstrom
           Maximum rank =  0   Radius =  0.325 angstrom
                   Q00  =   0.056756

H          x = -0.159752  y =  2.971060  z = -0.053814 angstrom
           Maximum rank =  0   Radius =  0.325 angstrom
                   Q00  =   0.063690

H          x =  1.701248  y =  2.229060  z = -1.505814 angstrom
           Maximum rank =  0   Radius =  0.325 angstrom
                   Q00  =   0.066303

H          x =  0.810248  y = -2.183940  z = -2.615814 angstrom
           Maximum rank =  0   Radius =  0.325 angstrom
                   Q00  =   0.098453

H          x = -0.842752  y = -2.496940  z = -2.050814 angstrom
           Maximum rank =  0   Radius =  0.325 angstrom
                   Q00  =   0.097571

H          x =  1.818248  y = -0.137940  z = -2.288814 angstrom
           Maximum rank =  0   Radius =  0.325 angstrom
                   Q00  =   0.057867

H          x =  0.486658  y = -2.823020  z = -0.934324 angstrom
           Maximum rank =  0   Radius =  0.325 angstrom
                   Q00  =   0.107525

C          x = -0.267752  y =  0.121060  z =  3.282186 angstrom
           Maximum rank =  0   Radius =  0.650 angstrom
                   Q00  =  -0.238587

C          x =  0.391248  y = -1.201940  z =  2.880186 angstrom
           Maximum rank =  0   Radius =  0.650 angstrom
                   Q00  =  -0.231433

H          x =  0.286248  y =  0.566060  z =  4.109186 angstrom
           Maximum rank =  0   Radius =  0.325 angstrom
                   Q00  =   0.074193

H          x = -0.263752  y =  0.807060  z =  2.437186 angstrom
           Maximum rank =  0   Radius =  0.325 angstrom
                   Q00  =   0.091559

H          x = -1.297752  y = -0.053940  z =  3.590186 angstrom
           Maximum rank =  0   Radius =  0.325 angstrom
                   Q00  =   0.070324

H          x = -0.166752  y = -1.637940  z =  2.050186 angstrom
           Maximum rank =  0   Radius =  0.325 angstrom
                   Q00  =   0.080295

H          x =  0.391248  y = -1.902250  z =  3.728456 angstrom
           Maximum rank =  0   Radius =  0.325 angstrom
                   Q00  =   0.073549

H          x =  1.419028  y = -0.973620  z =  2.561536 angstrom
           Maximum rank =  0   Radius =  0.325 angstrom
                   Q00  =   0.079303

Total multipoles referred to origin at
           x =   0.000000,  y =    0.000000,  z =    0.000000 angstrom
                   Q00  =  -0.000000

Finished at 22:32:37 on 27 Apr 2020 

  DMA results are available in the Python driver through the
	  variable('DMA DISTRIBUTED MULTIPOLES')
  and
	  variable('DMA TOTAL MULTIPOLES')
  commands.


    Psi4 stopped on: Monday, 27 April 2020 10:32PM
    Psi4 wall time for execution: 0:01:43.13

*** Psi4 exiting successfully. Buy a developer a beer!
