
    -----------------------------------------------------------------------
          Psi4: An Open-Source Ab Initio Electronic Structure Package
                               Psi4 1.3.2 release

                         Git: Rev {HEAD} ecbda83 


    R. M. Parrish, L. A. Burns, D. G. A. Smith, A. C. Simmonett,
    A. E. DePrince III, E. G. Hohenstein, U. Bozkaya, A. Yu. Sokolov,
    R. Di Remigio, R. M. Richard, J. F. Gonthier, A. M. James,
    H. R. McAlexander, A. Kumar, M. Saitow, X. Wang, B. P. Pritchard,
    P. Verma, H. F. Schaefer III, K. Patkowski, R. A. King, E. F. Valeev,
    F. A. Evangelista, J. M. Turney, T. D. Crawford, and C. D. Sherrill,
    J. Chem. Theory Comput. 13(7) pp 3185--3197 (2017).
    (doi: 10.1021/acs.jctc.7b00174)


                         Additional Contributions by
    P. Kraus, H. Kruse, M. H. Lechner, M. C. Schieber, R. A. Shaw,
    A. Alenaizan, R. Galvelis, Z. L. Glick, S. Lehtola, and J. P. Misiewicz

    -----------------------------------------------------------------------


    Psi4 started on: Tuesday, 28 April 2020 05:30PM

    Process ID: 31755
    Host:       ds3
    PSIDATADIR: /theoryfs2/ds/metcalf/miniconda2/envs/tf2gpu/share/psi4
    Memory:     500.0 MiB
    Threads:    1
    
  ==> Input File <==

--------------------------------------------------------------------------
import numpy as np
set {scf_type pk
basis cc-pvdz
d_convergence 10
gdma_switch   0
gdma_limit    0
gdma_origin   [ 0.0,  0.0,  0.0 ]
}
molecule test {
    units Angstrom
    0 1
    --
    0 1
    C               -1.944221983769307    -2.481078504233523     1.436099552571487
    C               -3.378221983769307    -2.925078504233523     1.544099552571488
    H               -1.282221983769307    -3.176078504233523     1.948099552571488
    H               -1.661221983769307    -2.430078504233523     0.386099552571488
    H               -1.826221983769307    -1.492078504233523     1.875099552571488
    H               -3.976221983769307    -2.317078504233523     0.865099552571487
    H               -3.788281983769307    -2.819003504233523     2.559279552571487
    H               -3.450394983769307    -3.971981504233523     1.214279552571487
    C               -0.692221983769307     2.734921495766477    -0.199900447428512
    C                0.065778016230693     0.389921495766477     0.296099552571488
    C                0.260778016230693     1.583921495766476    -0.369900447428512
    C                0.979778016230693    -0.653078504233523     0.137099552571488
    C                1.355778016230693     1.720921495766477    -1.205900447428512
    C                2.052778016230693    -0.508078504233523    -0.703900447428513
    C                2.255778016230693     0.669921495766477    -1.376900447428512
    H               -0.784221983769307     0.274921495766477     0.952099552571488
    H                0.831778016230693    -1.585078504233523     0.666099552571488
    H               -1.706221983769307     2.351921495766477    -0.200900447428512
    H               -0.599221983769307     3.375921495766477    -1.077900447428512
    H                1.523778016230693     2.651921495766477    -1.729900447428512
    H                2.754778016230693    -1.314078504233523    -0.842900447428513
    H                3.101778016230693     0.770921495766477    -2.039900447428513
    H               -0.520834983769307     3.341921495766477     0.701309552571488

}
e, wfn = energy('scf', return_wfn=True)
gdma(wfn)
dmavals = variable('DMA DISTRIBUTED MULTIPOLES')
charges = np.array(dmavals)
print(charges)
np.save('SSI-064THR-116PHE-1-dimer.npy', np.array(charges))--------------------------------------------------------------------------

*** tstart() called on ds3
*** at Tue Apr 28 17:30:44 2020

   => Loading Basis Set <=

    Name: CC-PVDZ
    Role: ORBITAL
    Keyword: BASIS
    atoms 1-2, 9-15  entry C          line   138 file /theoryfs2/ds/metcalf/miniconda2/envs/tf2gpu/share/psi4/basis/cc-pvdz.gbs 
    atoms 3-8, 16-23 entry H          line    22 file /theoryfs2/ds/metcalf/miniconda2/envs/tf2gpu/share/psi4/basis/cc-pvdz.gbs 


         ---------------------------------------------------------
                                   SCF
               by Justin Turney, Rob Parrish, Andy Simmonett
                          and Daniel G. A. Smith
                              RHF Reference
                        1 Threads,    500 MiB Core
         ---------------------------------------------------------

  ==> Geometry <==

    Molecular point group: c1
    Full point group: C1

    Geometry (in Angstrom), charge = 0, multiplicity = 1:

       Center              X                  Y                   Z               Mass       
    ------------   -----------------  -----------------  -----------------  -----------------
         C           -1.944221983769    -2.481078504234     1.436099552571    12.000000000000
         C           -3.378221983769    -2.925078504234     1.544099552571    12.000000000000
         H           -1.282221983769    -3.176078504234     1.948099552571     1.007825032230
         H           -1.661221983769    -2.430078504234     0.386099552571     1.007825032230
         H           -1.826221983769    -1.492078504234     1.875099552571     1.007825032230
         H           -3.976221983769    -2.317078504234     0.865099552571     1.007825032230
         H           -3.788281983769    -2.819003504234     2.559279552571     1.007825032230
         H           -3.450394983769    -3.971981504234     1.214279552571     1.007825032230
         C           -0.692221983769     2.734921495766    -0.199900447429    12.000000000000
         C            0.065778016231     0.389921495766     0.296099552571    12.000000000000
         C            0.260778016231     1.583921495766    -0.369900447429    12.000000000000
         C            0.979778016231    -0.653078504234     0.137099552571    12.000000000000
         C            1.355778016231     1.720921495766    -1.205900447429    12.000000000000
         C            2.052778016231    -0.508078504234    -0.703900447429    12.000000000000
         C            2.255778016231     0.669921495766    -1.376900447429    12.000000000000
         H           -0.784221983769     0.274921495766     0.952099552571     1.007825032230
         H            0.831778016231    -1.585078504234     0.666099552571     1.007825032230
         H           -1.706221983769     2.351921495766    -0.200900447429     1.007825032230
         H           -0.599221983769     3.375921495766    -1.077900447429     1.007825032230
         H            1.523778016231     2.651921495766    -1.729900447429     1.007825032230
         H            2.754778016231    -1.314078504234    -0.842900447429     1.007825032230
         H            3.101778016231     0.770921495766    -2.039900447429     1.007825032230
         H           -0.520834983769     3.341921495766     0.701309552571     1.007825032230

  Running in c1 symmetry.

  Rotational constants: A =      0.07797  B =      0.02182  C =      0.01755 [cm^-1]
  Rotational constants: A =   2337.47182  B =    654.25762  C =    526.17961 [MHz]
  Nuclear repulsion =  402.600383622406298

  Charge       = 0
  Multiplicity = 1
  Electrons    = 68
  Nalpha       = 34
  Nbeta        = 34

  ==> Algorithm <==

  SCF Algorithm Type is PK.
  DIIS enabled.
  MOM disabled.
  Fractional occupation disabled.
  Guess Type is SAD.
  Energy threshold   = 1.00e-06
  Density threshold  = 1.00e-10
  Integral threshold = 0.00e+00

  ==> Primary Basis <==

  Basis Set: CC-PVDZ
    Blend: CC-PVDZ
    Number of shells: 96
    Number of basis function: 196
    Number of Cartesian functions: 205
    Spherical Harmonics?: true
    Max angular momentum: 2

  ==> Pre-Iterations <==

   -------------------------------------------------------
    Irrep   Nso     Nmo     Nalpha   Nbeta   Ndocc  Nsocc
   -------------------------------------------------------
     A        196     196       0       0       0       0
   -------------------------------------------------------
    Total     196     196      34      34      34       0
   -------------------------------------------------------

  ==> Integral Setup <==

  Using integral reordering PK algorithm.
  Sizing the integral batches needed.
  Building batch lookup table.
   Calculation information:
      Number of atoms:                  23
      Number of AO shells:              96
      Number of primitives:            268
      Number of atomic orbitals:       205
      Number of basis functions:       196

      Integral cutoff                 1.00e-12
      Number of threads:                 1

	Batch   1 pq = [       0,    9405] index = [             0,44231715] size =     44231715
	Batch   2 pq = [    9405,   13301] index = [      44231715,88464951] size =     44233236
	Batch   3 pq = [   13301,   16290] index = [      88464951,132690195] size =     44225244
	Batch   4 pq = [   16290,   18810] index = [     132690195,176917455] size =     44227260
	Batch   5 pq = [   18810,   19306] index = [     176917455,186370471] size =      9453016
  Task number: 17
  Buffer size: 11059200
  Buffer per thread: 2
  We computed 8690712 shell quartets total.
  Whereas there are 10841496 unique shell quartets.

  ==> DiskJK: Disk-Based J/K Matrices <==

    J tasked:                  Yes
    K tasked:                  Yes
    wK tasked:                  No
    Memory [MiB]:              375
    Schwarz Cutoff:          1E-12

    OpenMP threads:              1

  Minimum eigenvalue in the overlap matrix is 2.8554603032E-04.
  Using Symmetric Orthogonalization.

  SCF Guess: Superposition of Atomic Densities via on-the-fly atomic UHF.

  ==> Iterations <==

                        Total Energy        Delta E     RMS |[F,P]|

   @RHF iter SAD:  -348.03920369623461   -3.48039e+02   0.00000e+00 
   @RHF iter   1:  -348.75937077292372   -7.20167e-01   2.94295e-03 DIIS
   @RHF iter   2:  -348.95642890611964   -1.97058e-01   1.23161e-03 DIIS
   @RHF iter   3:  -348.98798999498842   -3.15611e-02   2.62074e-04 DIIS
   @RHF iter   4:  -348.99051718935186   -2.52719e-03   5.30635e-05 DIIS
   @RHF iter   5:  -348.99059170431735   -7.45150e-05   1.72083e-05 DIIS
   @RHF iter   6:  -348.99059900972276   -7.30541e-06   4.71873e-06 DIIS
   @RHF iter   7:  -348.99059962661465   -6.16892e-07   1.26460e-06 DIIS
   @RHF iter   8:  -348.99059967305834   -4.64437e-08   2.70608e-07 DIIS
   @RHF iter   9:  -348.99059967656927   -3.51093e-09   1.05583e-07 DIIS
   @RHF iter  10:  -348.99059967710798   -5.38705e-10   4.40175e-08 DIIS
   @RHF iter  11:  -348.99059967727760   -1.69621e-10   1.80663e-08 DIIS
   @RHF iter  12:  -348.99059967730909   -3.14913e-11   9.65189e-09 DIIS
   @RHF iter  13:  -348.99059967731870   -9.60654e-12   3.76729e-09 DIIS
   @RHF iter  14:  -348.99059967731841    2.84217e-13   1.02129e-09 DIIS
   @RHF iter  15:  -348.99059967732109   -2.67164e-12   3.29603e-10 DIIS
   @RHF iter  16:  -348.99059967732001    1.08002e-12   7.66131e-11 DIIS
  Energy and wave function converged.


  ==> Post-Iterations <==

    Orbital Energies [Eh]
    ---------------------

    Doubly Occupied:                                                      

       1A    -11.235608     2A    -11.231259     3A    -11.230966  
       4A    -11.227383     5A    -11.227151     6A    -11.227017  
       7A    -11.224348     8A    -11.218581     9A    -11.216239  
      10A     -1.157069    11A     -1.048112    12A     -1.026252  
      13A     -1.010150    14A     -0.932077    15A     -0.837541  
      16A     -0.828065    17A     -0.792772    18A     -0.692605  
      19A     -0.632954    20A     -0.628184    21A     -0.602846  
      22A     -0.602056    23A     -0.580749    24A     -0.577984  
      25A     -0.562961    26A     -0.532789    27A     -0.508070  
      28A     -0.490397    29A     -0.489468    30A     -0.483871  
      31A     -0.480263    32A     -0.477574    33A     -0.329631  
      34A     -0.325563  

    Virtual:                                                              

      35A      0.136955    36A      0.145830    37A      0.177316  
      38A      0.193947    39A      0.201985    40A      0.218190  
      41A      0.236294    42A      0.240306    43A      0.252966  
      44A      0.259574    45A      0.267373    46A      0.278792  
      47A      0.289155    48A      0.290340    49A      0.304095  
      50A      0.343476    51A      0.371699    52A      0.390699  
      53A      0.405243    54A      0.462005    55A      0.473941  
      56A      0.479534    57A      0.499880    58A      0.566205  
      59A      0.594596    60A      0.598470    61A      0.602192  
      62A      0.636367    63A      0.647111    64A      0.678351  
      65A      0.683815    66A      0.694361    67A      0.703450  
      68A      0.709522    69A      0.725309    70A      0.745143  
      71A      0.747070    72A      0.751850    73A      0.767473  
      74A      0.778287    75A      0.783282    76A      0.799343  
      77A      0.836198    78A      0.854028    79A      0.866652  
      80A      0.872263    81A      0.880855    82A      0.889526  
      83A      0.891212    84A      0.896029    85A      0.899754  
      86A      0.914970    87A      0.919547    88A      0.922052  
      89A      0.933881    90A      0.941020    91A      0.945919  
      92A      0.960775    93A      0.990099    94A      1.017082  
      95A      1.028745    96A      1.051204    97A      1.117342  
      98A      1.130086    99A      1.134326   100A      1.150435  
     101A      1.163823   102A      1.175576   103A      1.204146  
     104A      1.241527   105A      1.251711   106A      1.255678  
     107A      1.260358   108A      1.286781   109A      1.315632  
     110A      1.324007   111A      1.330280   112A      1.341418  
     113A      1.416197   114A      1.476796   115A      1.483964  
     116A      1.522540   117A      1.532930   118A      1.561201  
     119A      1.590792   120A      1.617663   121A      1.675829  
     122A      1.682688   123A      1.697525   124A      1.708571  
     125A      1.740374   126A      1.752197   127A      1.767598  
     128A      1.794930   129A      1.817424   130A      1.854506  
     131A      1.867572   132A      1.878783   133A      1.904507  
     134A      1.905399   135A      1.908217   136A      1.914554  
     137A      1.921392   138A      1.930355   139A      1.941865  
     140A      1.949985   141A      1.953759   142A      1.958162  
     143A      1.962811   144A      1.964850   145A      1.989120  
     146A      1.994599   147A      2.008294   148A      2.021564  
     149A      2.050336   150A      2.068799   151A      2.087778  
     152A      2.102097   153A      2.114584   154A      2.129248  
     155A      2.148317   156A      2.174861   157A      2.184904  
     158A      2.201834   159A      2.212023   160A      2.264264  
     161A      2.282606   162A      2.304477   163A      2.309899  
     164A      2.318777   165A      2.324973   166A      2.334328  
     167A      2.359773   168A      2.459458   169A      2.468028  
     170A      2.477005   171A      2.484243   172A      2.519227  
     173A      2.552841   174A      2.566268   175A      2.589486  
     176A      2.630737   177A      2.748557   178A      2.760127  
     179A      2.774625   180A      2.775316   181A      2.788222  
     182A      2.806573   183A      2.828754   184A      2.853973  
     185A      2.860055   186A      2.867867   187A      2.893315  
     188A      2.959820   189A      2.962152   190A      2.993461  
     191A      3.031687   192A      3.045035   193A      3.171008  
     194A      3.226484   195A      3.321883   196A      4.005533  

    Final Occupation by Irrep:
              A 
    DOCC [    34 ]

  @RHF Final Energy:  -348.99059967732001

   => Energetics <=

    Nuclear Repulsion Energy =            402.6003836224062979
    One-Electron Energy =               -1267.8448619689679617
    Two-Electron Energy =                 516.2538786692416579
    Total Energy =                       -348.9905996773200059

Computation Completed


Properties will be evaluated at   0.000000,   0.000000,   0.000000 [a0]

Properties computed using the SCF density matrix

  Nuclear Dipole Moment: [e a0]
     X:   -10.6712      Y:    -5.9416      Z:     4.9461

  Electronic Dipole Moment: [e a0]
     X:    10.5925      Y:     6.0115      Z:    -4.9452

  Dipole Moment: [e a0]
     X:    -0.0787      Y:     0.0699      Z:     0.0009     Total:     0.1053

  Dipole Moment: [D]
     X:    -0.2000      Y:     0.1778      Z:     0.0022     Total:     0.2676


*** tstop() called on ds3 at Tue Apr 28 17:32:03 2020
Module time:
	user time   =      56.25 seconds =       0.94 minutes
	system time =      25.30 seconds =       0.42 minutes
	total time  =         79 seconds =       1.32 minutes
Total time:
	user time   =      56.25 seconds =       0.94 minutes
	system time =      25.30 seconds =       0.42 minutes
	total time  =         79 seconds =       1.32 minutes
                                     G D M A

                                 by Anthony Stone

                           version 2.2.06, 22 June 2011

               Distributed Multipoles from Gaussian wavefunctions


Starting at 17:32:3 on 28 Apr 2020  


Using SCF density matrix from file ./SSI/SSI-064THR-116PHE-1-dimer.test.31755.fchk


                         Distributed Multipole Analysis

Standard DMA

Positions and radii in angstrom
Multipole moments in atomic units, ea_0^k for rank k

C          x = -1.944222  y = -2.481079  z =  1.436100 angstrom
           Maximum rank =  0   Radius =  0.650 angstrom
                   Q00  =  -0.236597

C          x = -3.378222  y = -2.925079  z =  1.544100 angstrom
           Maximum rank =  0   Radius =  0.650 angstrom
                   Q00  =  -0.226599

H          x = -1.282222  y = -3.176079  z =  1.948100 angstrom
           Maximum rank =  0   Radius =  0.325 angstrom
                   Q00  =   0.077062

H          x = -1.661222  y = -2.430079  z =  0.386100 angstrom
           Maximum rank =  0   Radius =  0.325 angstrom
                   Q00  =   0.081086

H          x = -1.826222  y = -1.492079  z =  1.875100 angstrom
           Maximum rank =  0   Radius =  0.325 angstrom
                   Q00  =   0.073363

H          x = -3.976222  y = -2.317079  z =  0.865100 angstrom
           Maximum rank =  0   Radius =  0.325 angstrom
                   Q00  =   0.076519

H          x = -3.788282  y = -2.819004  z =  2.559280 angstrom
           Maximum rank =  0   Radius =  0.325 angstrom
                   Q00  =   0.079383

H          x = -3.450395  y = -3.971982  z =  1.214280 angstrom
           Maximum rank =  0   Radius =  0.325 angstrom
                   Q00  =   0.076556

C          x = -0.692222  y =  2.734921  z = -0.199900 angstrom
           Maximum rank =  0   Radius =  0.650 angstrom
                   Q00  =  -0.205390

C          x =  0.065778  y =  0.389921  z =  0.296100 angstrom
           Maximum rank =  0   Radius =  0.650 angstrom
                   Q00  =  -0.082048

C          x =  0.260778  y =  1.583921  z = -0.369900 angstrom
           Maximum rank =  0   Radius =  0.650 angstrom
                   Q00  =  -0.093032

C          x =  0.979778  y = -0.653079  z =  0.137100 angstrom
           Maximum rank =  0   Radius =  0.650 angstrom
                   Q00  =  -0.031895

C          x =  1.355778  y =  1.720921  z = -1.205900 angstrom
           Maximum rank =  0   Radius =  0.650 angstrom
                   Q00  =  -0.031268

C          x =  2.052778  y = -0.508079  z = -0.703900 angstrom
           Maximum rank =  0   Radius =  0.650 angstrom
                   Q00  =  -0.078974

C          x =  2.255778  y =  0.669921  z = -1.376900 angstrom
           Maximum rank =  0   Radius =  0.650 angstrom
                   Q00  =  -0.067985

H          x = -0.784222  y =  0.274921  z =  0.952100 angstrom
           Maximum rank =  0   Radius =  0.325 angstrom
                   Q00  =   0.053243

H          x =  0.831778  y = -1.585079  z =  0.666100 angstrom
           Maximum rank =  0   Radius =  0.325 angstrom
                   Q00  =   0.063895

H          x = -1.706222  y =  2.351921  z = -0.200900 angstrom
           Maximum rank =  0   Radius =  0.325 angstrom
                   Q00  =   0.099528

H          x = -0.599222  y =  3.375921  z = -1.077900 angstrom
           Maximum rank =  0   Radius =  0.325 angstrom
                   Q00  =   0.094488

H          x =  1.523778  y =  2.651921  z = -1.729900 angstrom
           Maximum rank =  0   Radius =  0.325 angstrom
                   Q00  =   0.055432

H          x =  2.754778  y = -1.314079  z = -0.842900 angstrom
           Maximum rank =  0   Radius =  0.325 angstrom
                   Q00  =   0.054556

H          x =  3.101778  y =  0.770921  z = -2.039900 angstrom
           Maximum rank =  0   Radius =  0.325 angstrom
                   Q00  =   0.062963

H          x = -0.520835  y =  3.341921  z =  0.701310 angstrom
           Maximum rank =  0   Radius =  0.325 angstrom
                   Q00  =   0.105715

Total multipoles referred to origin at
           x =   0.000000,  y =    0.000000,  z =    0.000000 angstrom
                   Q00  =  -0.000000

Finished at 17:32:3 on 28 Apr 2020  

  DMA results are available in the Python driver through the
	  variable('DMA DISTRIBUTED MULTIPOLES')
  and
	  variable('DMA TOTAL MULTIPOLES')
  commands.


    Psi4 stopped on: Tuesday, 28 April 2020 05:32PM
    Psi4 wall time for execution: 0:01:19.10

*** Psi4 exiting successfully. Buy a developer a beer!
