
    -----------------------------------------------------------------------
          Psi4: An Open-Source Ab Initio Electronic Structure Package
                               Psi4 1.3.2 release

                         Git: Rev {HEAD} ecbda83 


    R. M. Parrish, L. A. Burns, D. G. A. Smith, A. C. Simmonett,
    A. E. DePrince III, E. G. Hohenstein, U. Bozkaya, A. Yu. Sokolov,
    R. Di Remigio, R. M. Richard, J. F. Gonthier, A. M. James,
    H. R. McAlexander, A. Kumar, M. Saitow, X. Wang, B. P. Pritchard,
    P. Verma, H. F. Schaefer III, K. Patkowski, R. A. King, E. F. Valeev,
    F. A. Evangelista, J. M. Turney, T. D. Crawford, and C. D. Sherrill,
    J. Chem. Theory Comput. 13(7) pp 3185--3197 (2017).
    (doi: 10.1021/acs.jctc.7b00174)


                         Additional Contributions by
    P. Kraus, H. Kruse, M. H. Lechner, M. C. Schieber, R. A. Shaw,
    A. Alenaizan, R. Galvelis, Z. L. Glick, S. Lehtola, and J. P. Misiewicz

    -----------------------------------------------------------------------


    Psi4 started on: Tuesday, 28 April 2020 08:00PM

    Process ID: 9518
    Host:       ds3
    PSIDATADIR: /theoryfs2/ds/metcalf/miniconda2/envs/tf2gpu/share/psi4
    Memory:     500.0 MiB
    Threads:    1
    
  ==> Input File <==

--------------------------------------------------------------------------
import numpy as np
set {scf_type pk
basis cc-pvdz
d_convergence 10
gdma_switch   0
gdma_limit    0
gdma_origin   [ 0.0,  0.0,  0.0 ]
}
molecule test {
    units Angstrom
    0 1
    --
    0 1
    C               -2.812984745328126     1.305716106528739     3.694045126591494
    C               -0.425984745328126     0.527716106528739     0.828045126591494
    C               -1.464984745328126     1.086716106528739     1.575045126591494
    C                0.381015254671874    -0.432283893471261     1.394045126591494
    C               -1.679984745328126     0.700716106528739     2.903045126591494
    C                0.177015254671874    -0.831283893471261     2.711045126591494
    C               -0.845984745328126    -0.268283893471261     3.462045126591494
    H               -0.260984745328126     0.844716106528739    -0.189954873408506
    H               -2.102984745328126     1.833716106528739     1.122045126591494
    H                1.173015254671874    -0.876283893471261     0.808045126591494
    H                0.810015254671874    -1.590283893471261     3.150045126591494
    H               -3.132984745328126     0.601716106528739     4.460045126591494
    H               -3.648984745328125     1.413716106528739     3.003045126591494
    H               -1.007984745328126    -0.604283893471261     4.472045126591493
    H               -2.594174745328126     2.286046106528739     4.142465126591493
    C                0.280015254671874     0.368716106528739    -2.882954873408506
    C                0.275015254671874     0.436716106528739    -4.398954873408506
    C                1.737015254671874    -2.004283893471261    -2.836954873408506
    S                1.805015254671874    -0.315283893471261    -2.190954873408506
    H                0.171015254671874     1.382716106528739    -2.497954873408506
    H               -0.564984745328126    -0.209283893471261    -2.522954873408506
    H                0.286015254671874    -0.570283893471261    -4.818954873408507
    H                1.182015254671874     0.952716106528739    -4.717954873408506
    H                1.773015254671874    -1.998283893471261    -3.924954873408506
    H                2.588015254671874    -2.567283893471262    -2.455954873408506
    H                0.812015254671874    -2.480283893471261    -2.510954873408506
    H               -0.593944745328126     0.983946106528739    -4.793218873408507

}
e, wfn = energy('scf', return_wfn=True)
gdma(wfn)
dmavals = variable('DMA DISTRIBUTED MULTIPOLES')
charges = np.array(dmavals)
print(charges)
np.save('SSI-046PHE-088MET-1-dimer.npy', np.array(charges))--------------------------------------------------------------------------

*** tstart() called on ds3
*** at Tue Apr 28 20:00:59 2020

   => Loading Basis Set <=

    Name: CC-PVDZ
    Role: ORBITAL
    Keyword: BASIS
    atoms 1-7, 16-18  entry C          line   138 file /theoryfs2/ds/metcalf/miniconda2/envs/tf2gpu/share/psi4/basis/cc-pvdz.gbs 
    atoms 8-15, 20-27 entry H          line    22 file /theoryfs2/ds/metcalf/miniconda2/envs/tf2gpu/share/psi4/basis/cc-pvdz.gbs 
    atoms 19          entry S          line   598 file /theoryfs2/ds/metcalf/miniconda2/envs/tf2gpu/share/psi4/basis/cc-pvdz.gbs 


         ---------------------------------------------------------
                                   SCF
               by Justin Turney, Rob Parrish, Andy Simmonett
                          and Daniel G. A. Smith
                              RHF Reference
                        1 Threads,    500 MiB Core
         ---------------------------------------------------------

  ==> Geometry <==

    Molecular point group: c1
    Full point group: C1

    Geometry (in Angstrom), charge = 0, multiplicity = 1:

       Center              X                  Y                   Z               Mass       
    ------------   -----------------  -----------------  -----------------  -----------------
         C           -2.812984745328     1.305716106529     3.694045126591    12.000000000000
         C           -0.425984745328     0.527716106529     0.828045126591    12.000000000000
         C           -1.464984745328     1.086716106529     1.575045126591    12.000000000000
         C            0.381015254672    -0.432283893471     1.394045126591    12.000000000000
         C           -1.679984745328     0.700716106529     2.903045126591    12.000000000000
         C            0.177015254672    -0.831283893471     2.711045126591    12.000000000000
         C           -0.845984745328    -0.268283893471     3.462045126591    12.000000000000
         H           -0.260984745328     0.844716106529    -0.189954873409     1.007825032230
         H           -2.102984745328     1.833716106529     1.122045126591     1.007825032230
         H            1.173015254672    -0.876283893471     0.808045126591     1.007825032230
         H            0.810015254672    -1.590283893471     3.150045126591     1.007825032230
         H           -3.132984745328     0.601716106529     4.460045126591     1.007825032230
         H           -3.648984745328     1.413716106529     3.003045126591     1.007825032230
         H           -1.007984745328    -0.604283893471     4.472045126591     1.007825032230
         H           -2.594174745328     2.286046106529     4.142465126591     1.007825032230
         C            0.280015254672     0.368716106529    -2.882954873409    12.000000000000
         C            0.275015254672     0.436716106529    -4.398954873409    12.000000000000
         C            1.737015254672    -2.004283893471    -2.836954873409    12.000000000000
         S            1.805015254672    -0.315283893471    -2.190954873409    31.972071174400
         H            0.171015254672     1.382716106529    -2.497954873409     1.007825032230
         H           -0.564984745328    -0.209283893471    -2.522954873409     1.007825032230
         H            0.286015254672    -0.570283893471    -4.818954873409     1.007825032230
         H            1.182015254672     0.952716106529    -4.717954873409     1.007825032230
         H            1.773015254672    -1.998283893471    -3.924954873409     1.007825032230
         H            2.588015254672    -2.567283893471    -2.455954873409     1.007825032230
         H            0.812015254672    -2.480283893471    -2.510954873409     1.007825032230
         H           -0.593944745328     0.983946106529    -4.793218873409     1.007825032230

  Running in c1 symmetry.

  Rotational constants: A =      0.06367  B =      0.01052  C =      0.00934 [cm^-1]
  Rotational constants: A =   1908.71540  B =    315.35141  C =    280.15143 [MHz]
  Nuclear repulsion =  636.545441410797253

  Charge       = 0
  Multiplicity = 1
  Electrons    = 92
  Nalpha       = 46
  Nbeta        = 46

  ==> Algorithm <==

  SCF Algorithm Type is PK.
  DIIS enabled.
  MOM disabled.
  Fractional occupation disabled.
  Guess Type is SAD.
  Energy threshold   = 1.00e-06
  Density threshold  = 1.00e-10
  Integral threshold = 0.00e+00

  ==> Primary Basis <==

  Basis Set: CC-PVDZ
    Blend: CC-PVDZ
    Number of shells: 116
    Number of basis function: 238
    Number of Cartesian functions: 249
    Spherical Harmonics?: true
    Max angular momentum: 2

  ==> Pre-Iterations <==

   -------------------------------------------------------
    Irrep   Nso     Nmo     Nalpha   Nbeta   Ndocc  Nsocc
   -------------------------------------------------------
     A        238     238       0       0       0       0
   -------------------------------------------------------
    Total     238     238      46      46      46       0
   -------------------------------------------------------

  ==> Integral Setup <==

  Using integral reordering PK algorithm.
  Sizing the integral batches needed.
  Building batch lookup table.
   Calculation information:
      Number of atoms:                  27
      Number of AO shells:             116
      Number of primitives:            350
      Number of atomic orbitals:       249
      Number of basis functions:       238

      Integral cutoff                 1.00e-12
      Number of threads:                 1

	Batch   1 pq = [       0,    9405] index = [             0,44231715] size =     44231715
	Batch   2 pq = [    9405,   13301] index = [      44231715,88464951] size =     44233236
	Batch   3 pq = [   13301,   16290] index = [      88464951,132690195] size =     44225244
	Batch   4 pq = [   16290,   18810] index = [     132690195,176917455] size =     44227260
	Batch   5 pq = [   18810,   21030] index = [     176917455,221140965] size =     44223510
	Batch   6 pq = [   21030,   23037] index = [     221140965,265363203] size =     44222238
	Batch   7 pq = [   23037,   24883] index = [     265363203,309594286] size =     44231083
	Batch   8 pq = [   24883,   26601] index = [     309594286,353819901] size =     44225615
	Batch   9 pq = [   26601,   28214] index = [     353819901,398029005] size =     44209104
	Batch  10 pq = [   28214,   28441] index = [     398029005,404459461] size =      6430456
  Task number: 37
  Buffer size: 11059200
  Buffer per thread: 2
  We computed 17598437 shell quartets total.
  Whereas there are 23028291 unique shell quartets.

  ==> DiskJK: Disk-Based J/K Matrices <==

    J tasked:                  Yes
    K tasked:                  Yes
    wK tasked:                  No
    Memory [MiB]:              375
    Schwarz Cutoff:          1E-12

    OpenMP threads:              1

  Minimum eigenvalue in the overlap matrix is 2.9382790006E-04.
  Using Symmetric Orthogonalization.

  SCF Guess: Superposition of Atomic Densities via on-the-fly atomic UHF.

  ==> Iterations <==

                        Total Energy        Delta E     RMS |[F,P]|

   @RHF iter SAD:  -784.45794304968229   -7.84458e+02   0.00000e+00 
   @RHF iter   1:  -785.30763879696383   -8.49696e-01   2.44617e-03 DIIS
   @RHF iter   2:  -785.51940403214735   -2.11765e-01   9.82520e-04 DIIS
   @RHF iter   3:  -785.54971604994830   -3.03120e-02   2.39589e-04 DIIS
   @RHF iter   4:  -785.55272545811056   -3.00941e-03   4.92940e-05 DIIS
   @RHF iter   5:  -785.55282691930927   -1.01461e-04   1.34902e-05 DIIS
   @RHF iter   6:  -785.55283441410586   -7.49480e-06   3.86129e-06 DIIS
   @RHF iter   7:  -785.55283510860352   -6.94498e-07   1.40652e-06 DIIS
   @RHF iter   8:  -785.55283520586102   -9.72575e-08   4.24602e-07 DIIS
   @RHF iter   9:  -785.55283522484888   -1.89879e-08   1.87572e-07 DIIS
   @RHF iter  10:  -785.55283522914135   -4.29247e-09   8.78402e-08 DIIS
   @RHF iter  11:  -785.55283523041726   -1.27591e-09   3.53804e-08 DIIS
   @RHF iter  12:  -785.55283523063122   -2.13959e-10   1.15006e-08 DIIS
   @RHF iter  13:  -785.55283523064213   -1.09139e-11   3.21586e-09 DIIS
   @RHF iter  14:  -785.55283523064440   -2.27374e-12   1.09746e-09 DIIS
   @RHF iter  15:  -785.55283523064122    3.18323e-12   3.93330e-10 DIIS
   @RHF iter  16:  -785.55283523064372   -2.50111e-12   1.73703e-10 DIIS
   @RHF iter  17:  -785.55283523064134    2.38742e-12   6.30808e-11 DIIS
  Energy and wave function converged.


  ==> Post-Iterations <==

    Orbital Energies [Eh]
    ---------------------

    Doubly Occupied:                                                      

       1A    -91.937678     2A    -11.259904     3A    -11.258068  
       4A    -11.235528     5A    -11.230602     6A    -11.227386  
       7A    -11.226060     8A    -11.225702     9A    -11.224881  
      10A    -11.224138    11A    -11.219354    12A     -8.941574  
      13A     -6.623595    14A     -6.622054    15A     -6.619877  
      16A     -1.146512    17A     -1.085328    18A     -1.038554  
      19A     -1.005353    20A     -0.997875    21A     -0.925958  
      22A     -0.890373    23A     -0.818576    24A     -0.790490  
      25A     -0.786816    26A     -0.684461    27A     -0.636453  
      28A     -0.625211    29A     -0.623929    30A     -0.610495  
      31A     -0.585173    32A     -0.577460    33A     -0.573827  
      34A     -0.561590    35A     -0.554233    36A     -0.536441  
      37A     -0.530329    38A     -0.511463    39A     -0.481581  
      40A     -0.481220    41A     -0.476937    42A     -0.474216  
      43A     -0.424076    44A     -0.335454    45A     -0.326288  
      46A     -0.315429  

    Virtual:                                                              

      47A      0.140486    48A      0.148663    49A      0.169221  
      50A      0.182550    51A      0.193645    52A      0.210043  
      53A      0.218217    54A      0.223562    55A      0.240522  
      56A      0.242455    57A      0.248876    58A      0.256754  
      59A      0.264708    60A      0.268040    61A      0.278471  
      62A      0.280471    63A      0.291882    64A      0.302450  
      65A      0.310697    66A      0.333394    67A      0.372233  
      68A      0.377389    69A      0.398940    70A      0.458584  
      71A      0.472495    72A      0.483632    73A      0.494318  
      74A      0.529334    75A      0.563883    76A      0.577963  
      77A      0.589648    78A      0.601517    79A      0.605627  
      80A      0.631703    81A      0.640968    82A      0.647694  
      83A      0.683019    84A      0.692537    85A      0.697940  
      86A      0.709345    87A      0.714129    88A      0.720052  
      89A      0.741830    90A      0.744644    91A      0.750491  
      92A      0.758089    93A      0.763935    94A      0.782350  
      95A      0.787625    96A      0.793149    97A      0.806394  
      98A      0.817517    99A      0.836725   100A      0.839166  
     101A      0.856950   102A      0.859883   103A      0.871737  
     104A      0.879300   105A      0.880747   106A      0.886573  
     107A      0.892395   108A      0.893824   109A      0.900469  
     110A      0.904969   111A      0.911048   112A      0.919477  
     113A      0.929852   114A      0.938409   115A      0.941992  
     116A      0.947099   117A      0.948492   118A      0.959694  
     119A      0.977525   120A      1.005750   121A      1.010398  
     122A      1.021387   123A      1.053159   124A      1.114228  
     125A      1.128903   126A      1.149157   127A      1.162610  
     128A      1.178273   129A      1.189538   130A      1.206901  
     131A      1.228037   132A      1.246663   133A      1.254862  
     134A      1.256591   135A      1.266541   136A      1.299457  
     137A      1.307859   138A      1.314479   139A      1.316255  
     140A      1.325433   141A      1.339600   142A      1.344934  
     143A      1.372740   144A      1.404451   145A      1.427205  
     146A      1.483313   147A      1.502173   148A      1.529127  
     149A      1.537088   150A      1.561156   151A      1.597225  
     152A      1.625337   153A      1.644576   154A      1.679843  
     155A      1.685047   156A      1.704959   157A      1.706383  
     158A      1.741803   159A      1.757553   160A      1.768782  
     161A      1.794305   162A      1.815411   163A      1.849238  
     164A      1.870477   165A      1.881789   166A      1.892403  
     167A      1.894068   168A      1.898240   169A      1.903288  
     170A      1.913032   171A      1.914034   172A      1.918950  
     173A      1.924732   174A      1.932768   175A      1.937458  
     176A      1.949423   177A      1.963024   178A      1.964773  
     179A      1.979230   180A      1.986932   181A      1.994903  
     182A      2.000115   183A      2.021800   184A      2.035929  
     185A      2.047801   186A      2.051121   187A      2.065321  
     188A      2.072234   189A      2.083138   190A      2.117307  
     191A      2.133026   192A      2.154954   193A      2.165877  
     194A      2.186342   195A      2.196619   196A      2.210607  
     197A      2.224548   198A      2.233761   199A      2.257943  
     200A      2.283500   201A      2.298671   202A      2.304737  
     203A      2.309340   204A      2.327237   205A      2.339470  
     206A      2.369770   207A      2.414685   208A      2.446853  
     209A      2.473525   210A      2.479088   211A      2.494665  
     212A      2.511855   213A      2.543029   214A      2.554277  
     215A      2.565588   216A      2.627625   217A      2.744165  
     218A      2.753118   219A      2.762737   220A      2.775536  
     221A      2.781151   222A      2.787815   223A      2.794928  
     224A      2.805250   225A      2.815580   226A      2.836255  
     227A      2.842732   228A      2.856774   229A      2.888707  
     230A      2.892341   231A      2.966650   232A      2.994239  
     233A      3.023896   234A      3.031977   235A      3.163525  
     236A      3.212879   237A      3.314636   238A      3.982838  

    Final Occupation by Irrep:
              A 
    DOCC [    46 ]

  @RHF Final Energy:  -785.55283523064134

   => Energetics <=

    Nuclear Repulsion Energy =            636.5454414107972525
    One-Electron Energy =               -2337.2195507201313376
    Two-Electron Energy =                 915.1212740786928634
    Total Energy =                       -785.5528352306413353

Computation Completed


Properties will be evaluated at   0.000000,   0.000000,   0.000000 [a0]

Properties computed using the SCF density matrix

  Nuclear Dipole Moment: [e a0]
     X:    -4.7446      Y:    -0.5680      Z:    -6.8780

  Electronic Dipole Moment: [e a0]
     X:     4.2764      Y:     0.2915      Z:     6.3736

  Dipole Moment: [e a0]
     X:    -0.4682      Y:    -0.2765      Z:    -0.5044     Total:     0.7417

  Dipole Moment: [D]
     X:    -1.1900      Y:    -0.7028      Z:    -1.2820     Total:     1.8851


*** tstop() called on ds3 at Tue Apr 28 20:04:39 2020
Module time:
	user time   =     148.52 seconds =       2.48 minutes
	system time =      62.35 seconds =       1.04 minutes
	total time  =        220 seconds =       3.67 minutes
Total time:
	user time   =     148.52 seconds =       2.48 minutes
	system time =      62.35 seconds =       1.04 minutes
	total time  =        220 seconds =       3.67 minutes
                                     G D M A

                                 by Anthony Stone

                           version 2.2.06, 22 June 2011

               Distributed Multipoles from Gaussian wavefunctions


Starting at 20:4:39 on 28 Apr 2020  


Using SCF density matrix from file ./SSI/SSI-046PHE-088MET-1-dimer.test.9518.fchk


                         Distributed Multipole Analysis

Standard DMA

Positions and radii in angstrom
Multipole moments in atomic units, ea_0^k for rank k

C          x = -2.812985  y =  1.305716  z =  3.694045 angstrom
           Maximum rank =  0   Radius =  0.650 angstrom
                   Q00  =  -0.201307

C          x = -0.425985  y =  0.527716  z =  0.828045 angstrom
           Maximum rank =  0   Radius =  0.650 angstrom
                   Q00  =  -0.053726

C          x = -1.464985  y =  1.086716  z =  1.575045 angstrom
           Maximum rank =  0   Radius =  0.650 angstrom
                   Q00  =  -0.035744

C          x =  0.381015  y = -0.432284  z =  1.394045 angstrom
           Maximum rank =  0   Radius =  0.650 angstrom
                   Q00  =  -0.070168

C          x = -1.679985  y =  0.700716  z =  2.903045 angstrom
           Maximum rank =  0   Radius =  0.650 angstrom
                   Q00  =  -0.107624

C          x =  0.177015  y = -0.831284  z =  2.711045 angstrom
           Maximum rank =  0   Radius =  0.650 angstrom
                   Q00  =  -0.026728

C          x = -0.845985  y = -0.268284  z =  3.462045 angstrom
           Maximum rank =  0   Radius =  0.650 angstrom
                   Q00  =  -0.084982

H          x = -0.260985  y =  0.844716  z = -0.189955 angstrom
           Maximum rank =  0   Radius =  0.325 angstrom
                   Q00  =   0.052467

H          x = -2.102985  y =  1.833716  z =  1.122045 angstrom
           Maximum rank =  0   Radius =  0.325 angstrom
                   Q00  =   0.049373

H          x =  1.173015  y = -0.876284  z =  0.808045 angstrom
           Maximum rank =  0   Radius =  0.325 angstrom
                   Q00  =   0.066708

H          x =  0.810015  y = -1.590284  z =  3.150045 angstrom
           Maximum rank =  0   Radius =  0.325 angstrom
                   Q00  =   0.060120

H          x = -3.132985  y =  0.601716  z =  4.460045 angstrom
           Maximum rank =  0   Radius =  0.325 angstrom
                   Q00  =   0.097616

H          x = -3.648985  y =  1.413716  z =  3.003045 angstrom
           Maximum rank =  0   Radius =  0.325 angstrom
                   Q00  =   0.094299

H          x = -1.007985  y = -0.604284  z =  4.472045 angstrom
           Maximum rank =  0   Radius =  0.325 angstrom
                   Q00  =   0.054855

H          x = -2.594175  y =  2.286046  z =  4.142465 angstrom
           Maximum rank =  0   Radius =  0.325 angstrom
                   Q00  =   0.105420

C          x =  0.280015  y =  0.368716  z = -2.882955 angstrom
           Maximum rank =  0   Radius =  0.650 angstrom
                   Q00  =  -0.219674

C          x =  0.275015  y =  0.436716  z = -4.398955 angstrom
           Maximum rank =  0   Radius =  0.650 angstrom
                   Q00  =  -0.234282

C          x =  1.737015  y = -2.004284  z = -2.836955 angstrom
           Maximum rank =  0   Radius =  0.650 angstrom
                   Q00  =  -0.360213

S          x =  1.805015  y = -0.315284  z = -2.190955 angstrom
           Maximum rank =  0   Radius =  0.650 angstrom
                   Q00  =   0.100963

H          x =  0.171015  y =  1.382716  z = -2.497955 angstrom
           Maximum rank =  0   Radius =  0.325 angstrom
                   Q00  =   0.084912

H          x = -0.564985  y = -0.209284  z = -2.522955 angstrom
           Maximum rank =  0   Radius =  0.325 angstrom
                   Q00  =   0.061666

H          x =  0.286015  y = -0.570284  z = -4.818955 angstrom
           Maximum rank =  0   Radius =  0.325 angstrom
                   Q00  =   0.081350

H          x =  1.182015  y =  0.952716  z = -4.717955 angstrom
           Maximum rank =  0   Radius =  0.325 angstrom
                   Q00  =   0.089756

H          x =  1.773015  y = -1.998284  z = -3.924955 angstrom
           Maximum rank =  0   Radius =  0.325 angstrom
                   Q00  =   0.090339

H          x =  2.588015  y = -2.567284  z = -2.455955 angstrom
           Maximum rank =  0   Radius =  0.325 angstrom
                   Q00  =   0.123750

H          x =  0.812015  y = -2.480284  z = -2.510955 angstrom
           Maximum rank =  0   Radius =  0.325 angstrom
                   Q00  =   0.089082

H          x = -0.593945  y =  0.983946  z = -4.793219 angstrom
           Maximum rank =  0   Radius =  0.325 angstrom
                   Q00  =   0.091773

Total multipoles referred to origin at
           x =   0.000000,  y =    0.000000,  z =    0.000000 angstrom
                   Q00  =  -0.000000

Finished at 20:4:39 on 28 Apr 2020  

  DMA results are available in the Python driver through the
	  variable('DMA DISTRIBUTED MULTIPOLES')
  and
	  variable('DMA TOTAL MULTIPOLES')
  commands.


    Psi4 stopped on: Tuesday, 28 April 2020 08:04PM
    Psi4 wall time for execution: 0:03:40.23

*** Psi4 exiting successfully. Buy a developer a beer!
