
    -----------------------------------------------------------------------
          Psi4: An Open-Source Ab Initio Electronic Structure Package
                               Psi4 1.3.2 release

                         Git: Rev {HEAD} ecbda83 


    R. M. Parrish, L. A. Burns, D. G. A. Smith, A. C. Simmonett,
    A. E. DePrince III, E. G. Hohenstein, U. Bozkaya, A. Yu. Sokolov,
    R. Di Remigio, R. M. Richard, J. F. Gonthier, A. M. James,
    H. R. McAlexander, A. Kumar, M. Saitow, X. Wang, B. P. Pritchard,
    P. Verma, H. F. Schaefer III, K. Patkowski, R. A. King, E. F. Valeev,
    F. A. Evangelista, J. M. Turney, T. D. Crawford, and C. D. Sherrill,
    J. Chem. Theory Comput. 13(7) pp 3185--3197 (2017).
    (doi: 10.1021/acs.jctc.7b00174)


                         Additional Contributions by
    P. Kraus, H. Kruse, M. H. Lechner, M. C. Schieber, R. A. Shaw,
    A. Alenaizan, R. Galvelis, Z. L. Glick, S. Lehtola, and J. P. Misiewicz

    -----------------------------------------------------------------------


    Psi4 started on: Monday, 27 April 2020 10:31PM

    Process ID: 31173
    Host:       ds3
    PSIDATADIR: /theoryfs2/ds/metcalf/miniconda2/envs/tf2gpu/share/psi4
    Memory:     500.0 MiB
    Threads:    1
    
  ==> Input File <==

--------------------------------------------------------------------------
import numpy as np
set {scf_type pk
basis cc-pvdz
d_convergence 10
gdma_switch   0
gdma_limit    0
gdma_origin   [ 0.0,  0.0,  0.0 ]
}
molecule test {
    units Angstrom
    -1 1
    --
    -1 1
    C               -0.174326477868949     0.464758318981235     3.585441505442244
    C               -0.299326477868949    -0.360241681018765     2.324441505442244
    O               -1.389326477868949    -0.364241681018765     1.709441505442244
    O                0.708673522131051    -1.010241681018765     1.968441505442244
    H                0.876673522131051     0.564758318981235     3.869441505442244
    H               -0.692326477868949    -0.060241681018765     4.389441505442244
    H               -0.614436477868949     1.467108318981235     3.477761505442244
    C                0.926673522131051     0.593758318981235    -1.155558494557756
    C                2.199673522131051     0.444758318981235    -1.994558494557756
    C               -0.329326477868949     0.193758318981235    -1.897558494557756
    O               -1.358326477868949    -0.111241681018765    -1.292558494557756
    N               -0.268326477868949     0.190758318981235    -3.219558494557756
    H                1.017673522131051    -0.067241681018765    -0.300558494557756
    H                0.813673522131051     1.606758318981235    -0.785558494557756
    H                2.216673522131051     1.183758318981235    -2.798558494557756
    H                2.217673522131051    -0.557241681018765    -2.428558494557756
    H               -1.089326477868949    -0.104241681018765    -3.731558494557756
    H                0.580673522131051     0.417758318981235    -3.711558494557756
    H                3.097413522131051     0.560948318981235    -1.369608494557756

}
e, wfn = energy('scf', return_wfn=True)
gdma(wfn)
dmavals = variable('DMA DISTRIBUTED MULTIPOLES')
charges = np.array(dmavals)
print(charges)
np.save('SSI-106ASP-133GLN-1-dimer.npy', np.array(charges))--------------------------------------------------------------------------

*** tstart() called on ds3
*** at Mon Apr 27 22:31:37 2020

   => Loading Basis Set <=

    Name: CC-PVDZ
    Role: ORBITAL
    Keyword: BASIS
    atoms 1-2, 8-10  entry C          line   138 file /theoryfs2/ds/metcalf/miniconda2/envs/tf2gpu/share/psi4/basis/cc-pvdz.gbs 
    atoms 3-4, 11    entry O          line   198 file /theoryfs2/ds/metcalf/miniconda2/envs/tf2gpu/share/psi4/basis/cc-pvdz.gbs 
    atoms 5-7, 13-19 entry H          line    22 file /theoryfs2/ds/metcalf/miniconda2/envs/tf2gpu/share/psi4/basis/cc-pvdz.gbs 
    atoms 12         entry N          line   168 file /theoryfs2/ds/metcalf/miniconda2/envs/tf2gpu/share/psi4/basis/cc-pvdz.gbs 


         ---------------------------------------------------------
                                   SCF
               by Justin Turney, Rob Parrish, Andy Simmonett
                          and Daniel G. A. Smith
                              RHF Reference
                        1 Threads,    500 MiB Core
         ---------------------------------------------------------

  ==> Geometry <==

    Molecular point group: c1
    Full point group: C1

    Geometry (in Angstrom), charge = -1, multiplicity = 1:

       Center              X                  Y                   Z               Mass       
    ------------   -----------------  -----------------  -----------------  -----------------
         C           -0.174326477869     0.464758318981     3.585441505442    12.000000000000
         C           -0.299326477869    -0.360241681019     2.324441505442    12.000000000000
         O           -1.389326477869    -0.364241681019     1.709441505442    15.994914619570
         O            0.708673522131    -1.010241681019     1.968441505442    15.994914619570
         H            0.876673522131     0.564758318981     3.869441505442     1.007825032230
         H           -0.692326477869    -0.060241681019     4.389441505442     1.007825032230
         H           -0.614436477869     1.467108318981     3.477761505442     1.007825032230
         C            0.926673522131     0.593758318981    -1.155558494558    12.000000000000
         C            2.199673522131     0.444758318981    -1.994558494558    12.000000000000
         C           -0.329326477869     0.193758318981    -1.897558494558    12.000000000000
         O           -1.358326477869    -0.111241681019    -1.292558494558    15.994914619570
         N           -0.268326477869     0.190758318981    -3.219558494558    14.003074004430
         H            1.017673522131    -0.067241681019    -0.300558494558     1.007825032230
         H            0.813673522131     1.606758318981    -0.785558494558     1.007825032230
         H            2.216673522131     1.183758318981    -2.798558494558     1.007825032230
         H            2.217673522131    -0.557241681019    -2.428558494558     1.007825032230
         H           -1.089326477869    -0.104241681019    -3.731558494558     1.007825032230
         H            0.580673522131     0.417758318981    -3.711558494558     1.007825032230
         H            3.097413522131     0.560948318981    -1.369608494558     1.007825032230

  Running in c1 symmetry.

  Rotational constants: A =      0.08921  B =      0.02272  C =      0.01938 [cm^-1]
  Rotational constants: A =   2674.36408  B =    681.00144  C =    581.08147 [MHz]
  Nuclear repulsion =  436.618526544238421

  Charge       = -1
  Multiplicity = 1
  Electrons    = 72
  Nalpha       = 36
  Nbeta        = 36

  ==> Algorithm <==

  SCF Algorithm Type is PK.
  DIIS enabled.
  MOM disabled.
  Fractional occupation disabled.
  Guess Type is SAD.
  Energy threshold   = 1.00e-06
  Density threshold  = 1.00e-10
  Integral threshold = 0.00e+00

  ==> Primary Basis <==

  Basis Set: CC-PVDZ
    Blend: CC-PVDZ
    Number of shells: 84
    Number of basis function: 176
    Number of Cartesian functions: 185
    Spherical Harmonics?: true
    Max angular momentum: 2

  ==> Pre-Iterations <==

   -------------------------------------------------------
    Irrep   Nso     Nmo     Nalpha   Nbeta   Ndocc  Nsocc
   -------------------------------------------------------
     A        176     176       0       0       0       0
   -------------------------------------------------------
    Total     176     176      36      36      36       0
   -------------------------------------------------------

  ==> Integral Setup <==

  Using integral reordering PK algorithm.
  Sizing the integral batches needed.
  Building batch lookup table.
   Calculation information:
      Number of atoms:                  19
      Number of AO shells:              84
      Number of primitives:            248
      Number of atomic orbitals:       185
      Number of basis functions:       176

      Integral cutoff                 1.00e-12
      Number of threads:                 1

	Batch   1 pq = [       0,    9405] index = [             0,44231715] size =     44231715
	Batch   2 pq = [    9405,   13301] index = [      44231715,88464951] size =     44233236
	Batch   3 pq = [   13301,   15576] index = [      88464951,121313676] size =     32848725
  Task number: 11
  Buffer size: 11059200
  Buffer per thread: 2
  We computed 4826952 shell quartets total.
  Whereas there are 6374235 unique shell quartets.

  ==> DiskJK: Disk-Based J/K Matrices <==

    J tasked:                  Yes
    K tasked:                  Yes
    wK tasked:                  No
    Memory [MiB]:              375
    Schwarz Cutoff:          1E-12

    OpenMP threads:              1

  Minimum eigenvalue in the overlap matrix is 2.9954550652E-03.
  Using Symmetric Orthogonalization.

  SCF Guess: Superposition of Atomic Densities via on-the-fly atomic UHF.

  ==> Iterations <==

                        Total Energy        Delta E     RMS |[F,P]|

   @RHF iter SAD:  -472.51037933044267   -4.72510e+02   0.00000e+00 
   @RHF iter   1:  -473.87749861706379   -1.36712e+00   4.95534e-03 DIIS
   @RHF iter   2:  -474.15035505284817   -2.72856e-01   3.00830e-03 DIIS
   @RHF iter   3:  -474.24966527089418   -9.93102e-02   4.97121e-04 DIIS
   @RHF iter   4:  -474.25421897946751   -4.55371e-03   2.06734e-04 DIIS
   @RHF iter   5:  -474.25509429618182   -8.75317e-04   4.62312e-05 DIIS
   @RHF iter   6:  -474.25515088516414   -5.65890e-05   2.28499e-05 DIIS
   @RHF iter   7:  -474.25516477861390   -1.38934e-05   7.32100e-06 DIIS
   @RHF iter   8:  -474.25516729089560   -2.51228e-06   2.88227e-06 DIIS
   @RHF iter   9:  -474.25516765180129   -3.60906e-07   1.09573e-06 DIIS
   @RHF iter  10:  -474.25516769395182   -4.21505e-08   3.29495e-07 DIIS
   @RHF iter  11:  -474.25516769690216   -2.95034e-09   1.28875e-07 DIIS
   @RHF iter  12:  -474.25516769725084   -3.48678e-10   2.98600e-08 DIIS
   @RHF iter  13:  -474.25516769728551   -3.46745e-11   9.92886e-09 DIIS
   @RHF iter  14:  -474.25516769729256   -7.04858e-12   3.70530e-09 DIIS
   @RHF iter  15:  -474.25516769729302   -4.54747e-13   1.78056e-09 DIIS
   @RHF iter  16:  -474.25516769729302    0.00000e+00   7.98253e-10 DIIS
   @RHF iter  17:  -474.25516769728944    3.58114e-12   3.29809e-10 DIIS
   @RHF iter  18:  -474.25516769729245   -3.01270e-12   9.58932e-11 DIIS
  Energy and wave function converged.


  ==> Post-Iterations <==

    Orbital Energies [Eh]
    ---------------------

    Doubly Occupied:                                                      

       1A    -20.364236     2A    -20.250456     3A    -20.242167  
       4A    -15.470151     5A    -11.209466     6A    -11.126498  
       7A    -11.102646     8A    -11.098898     9A    -11.041433  
      10A     -1.229898    11A     -1.135889    12A     -1.095065  
      13A     -1.023574    14A     -0.928577    15A     -0.788410  
      16A     -0.772282    17A     -0.669150    18A     -0.617734  
      19A     -0.520655    20A     -0.502273    21A     -0.490005  
      22A     -0.466358    23A     -0.434179    24A     -0.412678  
      25A     -0.403720    26A     -0.396982    27A     -0.391316  
      28A     -0.387508    29A     -0.370880    30A     -0.329080  
      31A     -0.291368    32A     -0.270564    33A     -0.265727  
      34A     -0.170101    35A     -0.158123    36A     -0.147211  

    Virtual:                                                              

      37A      0.271195    38A      0.312965    39A      0.329277  
      40A      0.342523    41A      0.350171    42A      0.360355  
      43A      0.375232    44A      0.391943    45A      0.403388  
      46A      0.423438    47A      0.473278    48A      0.498459  
      49A      0.513246    50A      0.540060    51A      0.584150  
      52A      0.605608    53A      0.673788    54A      0.713350  
      55A      0.722841    56A      0.732510    57A      0.745634  
      58A      0.801953    59A      0.825575    60A      0.829610  
      61A      0.841940    62A      0.858497    63A      0.880232  
      64A      0.918641    65A      0.933301    66A      0.945792  
      67A      0.982150    68A      0.989869    69A      1.000757  
      70A      1.016440    71A      1.018699    72A      1.027915  
      73A      1.038589    74A      1.041803    75A      1.045055  
      76A      1.066120    77A      1.075781    78A      1.093354  
      79A      1.117438    80A      1.137772    81A      1.152699  
      82A      1.172019    83A      1.218809    84A      1.230183  
      85A      1.238908    86A      1.251086    87A      1.343429  
      88A      1.374522    89A      1.402369    90A      1.423937  
      91A      1.437039    92A      1.479267    93A      1.494536  
      94A      1.528529    95A      1.538460    96A      1.566875  
      97A      1.573461    98A      1.583880    99A      1.606876  
     100A      1.617255   101A      1.667984   102A      1.720990  
     103A      1.734806   104A      1.744378   105A      1.765687  
     106A      1.774094   107A      1.799912   108A      1.849251  
     109A      1.861877   110A      1.865584   111A      1.897726  
     112A      1.943406   113A      1.975169   114A      1.982030  
     115A      2.006503   116A      2.042983   117A      2.061292  
     118A      2.070886   119A      2.078015   120A      2.085648  
     121A      2.101664   122A      2.119201   123A      2.128182  
     124A      2.138903   125A      2.152247   126A      2.172137  
     127A      2.193612   128A      2.226689   129A      2.232915  
     130A      2.278297   131A      2.288081   132A      2.338413  
     133A      2.384345   134A      2.425728   135A      2.443787  
     136A      2.458624   137A      2.490754   138A      2.501027  
     139A      2.540663   140A      2.589173   141A      2.612699  
     142A      2.644398   143A      2.676396   144A      2.683262  
     145A      2.688122   146A      2.724652   147A      2.731542  
     148A      2.747858   149A      2.780959   150A      2.847173  
     151A      2.865590   152A      2.921091   153A      2.966373  
     154A      2.969262   155A      2.997394   156A      3.018890  
     157A      3.040936   158A      3.113913   159A      3.155936  
     160A      3.230456   161A      3.259927   162A      3.279812  
     163A      3.287338   164A      3.320209   165A      3.375560  
     166A      3.413395   167A      3.643811   168A      3.651794  
     169A      3.665596   170A      3.811756   171A      3.860636  
     172A      4.010790   173A      4.040320   174A      4.081643  
     175A      4.102190   176A      4.214066  

    Final Occupation by Irrep:
              A 
    DOCC [    36 ]

  @RHF Final Energy:  -474.25516769729245

   => Energetics <=

    Nuclear Repulsion Energy =            436.6185265442384207
    One-Electron Energy =               -1528.5968739062502664
    Two-Electron Energy =                 617.7231796647193960
    Total Energy =                       -474.2551676972924497

Computation Completed


Properties will be evaluated at   0.000000,   0.000000,   0.000000 [a0]

Properties computed using the SCF density matrix

  Nuclear Dipole Moment: [e a0]
     X:     7.8886      Y:     4.6910      Z:    -3.1566

  Electronic Dipole Moment: [e a0]
     X:    -6.2767      Y:    -3.1625      Z:    -0.5577

  Dipole Moment: [e a0]
     X:     1.6119      Y:     1.5286      Z:    -3.7142     Total:     4.3278

  Dipole Moment: [D]
     X:     4.0969      Y:     3.8852      Z:    -9.4407     Total:    11.0003


*** tstop() called on ds3 at Mon Apr 27 22:32:34 2020
Module time:
	user time   =      38.31 seconds =       0.64 minutes
	system time =      20.29 seconds =       0.34 minutes
	total time  =         57 seconds =       0.95 minutes
Total time:
	user time   =      38.31 seconds =       0.64 minutes
	system time =      20.29 seconds =       0.34 minutes
	total time  =         57 seconds =       0.95 minutes
                                     G D M A

                                 by Anthony Stone

                           version 2.2.06, 22 June 2011

               Distributed Multipoles from Gaussian wavefunctions


Starting at 22:32:34 on 27 Apr 2020 


Using SCF density matrix from file ./SSI/SSI-106ASP-133GLN-1-dimer.test.31173.fchk


                         Distributed Multipole Analysis

Standard DMA

Positions and radii in angstrom
Multipole moments in atomic units, ea_0^k for rank k

C          x = -0.174326  y =  0.464758  z =  3.585442 angstrom
           Maximum rank =  0   Radius =  0.650 angstrom
                   Q00  =  -0.271001

C          x = -0.299326  y = -0.360242  z =  2.324442 angstrom
           Maximum rank =  0   Radius =  0.650 angstrom
                   Q00  =   0.962100

O          x = -1.389326  y = -0.364242  z =  1.709442 angstrom
           Maximum rank =  0   Radius =  0.650 angstrom
                   Q00  =  -0.905182

O          x =  0.708674  y = -1.010242  z =  1.968442 angstrom
           Maximum rank =  0   Radius =  0.650 angstrom
                   Q00  =  -0.940256

H          x =  0.876674  y =  0.564758  z =  3.869442 angstrom
           Maximum rank =  0   Radius =  0.325 angstrom
                   Q00  =   0.041733

H          x = -0.692326  y = -0.060242  z =  4.389442 angstrom
           Maximum rank =  0   Radius =  0.325 angstrom
                   Q00  =   0.074837

H          x = -0.614436  y =  1.467108  z =  3.477762 angstrom
           Maximum rank =  0   Radius =  0.325 angstrom
                   Q00  =   0.051999

C          x =  0.926674  y =  0.593758  z = -1.155558 angstrom
           Maximum rank =  0   Radius =  0.650 angstrom
                   Q00  =  -0.053377

C          x =  2.199674  y =  0.444758  z = -1.994558 angstrom
           Maximum rank =  0   Radius =  0.650 angstrom
                   Q00  =  -0.283146

C          x = -0.329326  y =  0.193758  z = -1.897558 angstrom
           Maximum rank =  0   Radius =  0.650 angstrom
                   Q00  =   0.793467

O          x = -1.358326  y = -0.111242  z = -1.292558 angstrom
           Maximum rank =  0   Radius =  0.650 angstrom
                   Q00  =  -0.758099

N          x = -0.268326  y =  0.190758  z = -3.219558 angstrom
           Maximum rank =  0   Radius =  0.650 angstrom
                   Q00  =  -0.512840

H          x =  1.017674  y = -0.067242  z = -0.300558 angstrom
           Maximum rank =  0   Radius =  0.325 angstrom
                   Q00  =   0.132095

H          x =  0.813674  y =  1.606758  z = -0.785558 angstrom
           Maximum rank =  0   Radius =  0.325 angstrom
                   Q00  =   0.083570

H          x =  2.216674  y =  1.183758  z = -2.798558 angstrom
           Maximum rank =  0   Radius =  0.325 angstrom
                   Q00  =   0.031129

H          x =  2.217674  y = -0.557242  z = -2.428558 angstrom
           Maximum rank =  0   Radius =  0.325 angstrom
                   Q00  =   0.072756

H          x = -1.089326  y = -0.104242  z = -3.731558 angstrom
           Maximum rank =  0   Radius =  0.325 angstrom
                   Q00  =   0.190791

H          x =  0.580674  y =  0.417758  z = -3.711558 angstrom
           Maximum rank =  0   Radius =  0.325 angstrom
                   Q00  =   0.188649

H          x =  3.097414  y =  0.560948  z = -1.369608 angstrom
           Maximum rank =  0   Radius =  0.325 angstrom
                   Q00  =   0.100777

Total multipoles referred to origin at
           x =   0.000000,  y =    0.000000,  z =    0.000000 angstrom
                   Q00  =  -1.000000

Finished at 22:32:34 on 27 Apr 2020 

  DMA results are available in the Python driver through the
	  variable('DMA DISTRIBUTED MULTIPOLES')
  and
	  variable('DMA TOTAL MULTIPOLES')
  commands.


    Psi4 stopped on: Monday, 27 April 2020 10:32PM
    Psi4 wall time for execution: 0:00:56.76

*** Psi4 exiting successfully. Buy a developer a beer!
