
    -----------------------------------------------------------------------
          Psi4: An Open-Source Ab Initio Electronic Structure Package
                               Psi4 1.3.2 release

                         Git: Rev {HEAD} ecbda83 


    R. M. Parrish, L. A. Burns, D. G. A. Smith, A. C. Simmonett,
    A. E. DePrince III, E. G. Hohenstein, U. Bozkaya, A. Yu. Sokolov,
    R. Di Remigio, R. M. Richard, J. F. Gonthier, A. M. James,
    H. R. McAlexander, A. Kumar, M. Saitow, X. Wang, B. P. Pritchard,
    P. Verma, H. F. Schaefer III, K. Patkowski, R. A. King, E. F. Valeev,
    F. A. Evangelista, J. M. Turney, T. D. Crawford, and C. D. Sherrill,
    J. Chem. Theory Comput. 13(7) pp 3185--3197 (2017).
    (doi: 10.1021/acs.jctc.7b00174)


                         Additional Contributions by
    P. Kraus, H. Kruse, M. H. Lechner, M. C. Schieber, R. A. Shaw,
    A. Alenaizan, R. Galvelis, Z. L. Glick, S. Lehtola, and J. P. Misiewicz

    -----------------------------------------------------------------------


    Psi4 started on: Sunday, 26 April 2020 08:12PM

    Process ID: 20023
    Host:       ds3
    PSIDATADIR: /theoryfs2/ds/metcalf/miniconda2/envs/tf2gpu/share/psi4
    Memory:     500.0 MiB
    Threads:    1
    
  ==> Input File <==

--------------------------------------------------------------------------
import numpy as np
set {scf_type pk
basis cc-pvdz
d_convergence 10
gdma_switch   0
gdma_limit    0
gdma_origin   [ 0.0,  0.0,  0.0 ]
}
molecule test {
    units Angstrom
    0 1
    --
    0 1
    C                1.936105726619331    -0.880962558608294    -1.205571717875400
    C                0.763105726619331    -1.143962558608294    -0.310571717875400
    O               -0.275894273380669    -0.513962558608294    -0.457571717875400
    N                0.901105726619331    -2.097962558608294     0.617428282124600
    H                1.956105726619331    -1.635962558608294    -1.988571717875400
    H                2.853105726619331    -0.991962558608294    -0.626571717875400
    H                0.118105726619331    -2.301962558608294     1.217428282124600
    H                1.756105726619331    -2.628962558608294     0.678428282124600
    H                1.928195726619331     0.123257441391706    -1.654451717875401
    C               -1.964894273380669     2.648037441391706     0.257428282124600
    O               -1.094894273380669     1.726037441391706     0.888428282124600
    H               -1.574894273380669     1.275037441391706     1.592428282124600
    H               -1.469894273380669     3.086037441391706    -0.609571717875400
    H               -2.894774273380669     2.144137441391706    -0.044911717875400
    H               -2.180314273380669     3.424407441391706     1.006328282124600

}
e, wfn = energy('scf', return_wfn=True)
gdma(wfn)
dmavals = variable('DMA DISTRIBUTED MULTIPOLES')
charges = np.array(dmavals)
print(charges)
np.save('SSI-037ASN-040THR-1-dimer.npy', np.array(charges))--------------------------------------------------------------------------

*** tstart() called on ds3
*** at Sun Apr 26 20:12:39 2020

   => Loading Basis Set <=

    Name: CC-PVDZ
    Role: ORBITAL
    Keyword: BASIS
    atoms 1-2, 10    entry C          line   138 file /theoryfs2/ds/metcalf/miniconda2/envs/tf2gpu/share/psi4/basis/cc-pvdz.gbs 
    atoms 3, 11      entry O          line   198 file /theoryfs2/ds/metcalf/miniconda2/envs/tf2gpu/share/psi4/basis/cc-pvdz.gbs 
    atoms 4          entry N          line   168 file /theoryfs2/ds/metcalf/miniconda2/envs/tf2gpu/share/psi4/basis/cc-pvdz.gbs 
    atoms 5-9, 12-15 entry H          line    22 file /theoryfs2/ds/metcalf/miniconda2/envs/tf2gpu/share/psi4/basis/cc-pvdz.gbs 


         ---------------------------------------------------------
                                   SCF
               by Justin Turney, Rob Parrish, Andy Simmonett
                          and Daniel G. A. Smith
                              RHF Reference
                        1 Threads,    500 MiB Core
         ---------------------------------------------------------

  ==> Geometry <==

    Molecular point group: c1
    Full point group: C1

    Geometry (in Angstrom), charge = 0, multiplicity = 1:

       Center              X                  Y                   Z               Mass       
    ------------   -----------------  -----------------  -----------------  -----------------
         C            1.936105726619    -0.880962558608    -1.205571717875    12.000000000000
         C            0.763105726619    -1.143962558608    -0.310571717875    12.000000000000
         O           -0.275894273381    -0.513962558608    -0.457571717875    15.994914619570
         N            0.901105726619    -2.097962558608     0.617428282125    14.003074004430
         H            1.956105726619    -1.635962558608    -1.988571717875     1.007825032230
         H            2.853105726619    -0.991962558608    -0.626571717875     1.007825032230
         H            0.118105726619    -2.301962558608     1.217428282125     1.007825032230
         H            1.756105726619    -2.628962558608     0.678428282125     1.007825032230
         H            1.928195726619     0.123257441392    -1.654451717875     1.007825032230
         C           -1.964894273381     2.648037441392     0.257428282125    12.000000000000
         O           -1.094894273381     1.726037441392     0.888428282125    15.994914619570
         H           -1.574894273381     1.275037441392     1.592428282125     1.007825032230
         H           -1.469894273381     3.086037441392    -0.609571717875     1.007825032230
         H           -2.894774273381     2.144137441392    -0.044911717875     1.007825032230
         H           -2.180314273381     3.424407441392     1.006328282125     1.007825032230

  Running in c1 symmetry.

  Rotational constants: A =      0.22892  B =      0.03924  C =      0.03581 [cm^-1]
  Rotational constants: A =   6862.99883  B =   1176.32331  C =   1073.44597 [MHz]
  Nuclear repulsion =  234.483643261953517

  Charge       = 0
  Multiplicity = 1
  Electrons    = 50
  Nalpha       = 25
  Nbeta        = 25

  ==> Algorithm <==

  SCF Algorithm Type is PK.
  DIIS enabled.
  MOM disabled.
  Fractional occupation disabled.
  Guess Type is SAD.
  Energy threshold   = 1.00e-06
  Density threshold  = 1.00e-10
  Integral threshold = 0.00e+00

  ==> Primary Basis <==

  Basis Set: CC-PVDZ
    Blend: CC-PVDZ
    Number of shells: 63
    Number of basis function: 129
    Number of Cartesian functions: 135
    Spherical Harmonics?: true
    Max angular momentum: 2

  ==> Pre-Iterations <==

   -------------------------------------------------------
    Irrep   Nso     Nmo     Nalpha   Nbeta   Ndocc  Nsocc
   -------------------------------------------------------
     A        129     129       0       0       0       0
   -------------------------------------------------------
    Total     129     129      25      25      25       0
   -------------------------------------------------------

  ==> Integral Setup <==

  Using integral reordering PK algorithm.
  Sizing the integral batches needed.
  Building batch lookup table.
   Calculation information:
      Number of atoms:                  15
      Number of AO shells:              63
      Number of primitives:            177
      Number of atomic orbitals:       135
      Number of basis functions:       129

      Integral cutoff                 1.00e-12
      Number of threads:                 1

	Batch   1 pq = [       0,    8385] index = [             0,35158305] size =     35158305
  Task number: 4
  Buffer size: 11059200
  Buffer per thread: 2
  We computed 1556224 shell quartets total.
  Whereas there are 2033136 unique shell quartets.

  ==> DiskJK: Disk-Based J/K Matrices <==

    J tasked:                  Yes
    K tasked:                  Yes
    wK tasked:                  No
    Memory [MiB]:              375
    Schwarz Cutoff:          1E-12

    OpenMP threads:              1

  Minimum eigenvalue in the overlap matrix is 4.5803868910E-03.
  Using Symmetric Orthogonalization.

  SCF Guess: Superposition of Atomic Densities via on-the-fly atomic UHF.

  ==> Iterations <==

                        Total Energy        Delta E     RMS |[F,P]|

   @RHF iter SAD:  -321.67156710247866   -3.21672e+02   0.00000e+00 
   @RHF iter   1:  -322.80916212040989   -1.13760e+00   5.13527e-03 DIIS
   @RHF iter   2:  -322.97368468946678   -1.64523e-01   3.07609e-03 DIIS
   @RHF iter   3:  -323.02998585859336   -5.63012e-02   5.64758e-04 DIIS
   @RHF iter   4:  -323.03312395223452   -3.13809e-03   2.29621e-04 DIIS
   @RHF iter   5:  -323.03367057596824   -5.46624e-04   4.82617e-05 DIIS
   @RHF iter   6:  -323.03370874097709   -3.81650e-05   2.21619e-05 DIIS
   @RHF iter   7:  -323.03371723840382   -8.49743e-06   8.32311e-06 DIIS
   @RHF iter   8:  -323.03371889694313   -1.65854e-06   2.80262e-06 DIIS
   @RHF iter   9:  -323.03371908265353   -1.85710e-07   8.07195e-07 DIIS
   @RHF iter  10:  -323.03371909536219   -1.27087e-08   2.81611e-07 DIIS
   @RHF iter  11:  -323.03371909665697   -1.29478e-09   4.95572e-08 DIIS
   @RHF iter  12:  -323.03371909670818   -5.12159e-11   1.35048e-08 DIIS
   @RHF iter  13:  -323.03371909671182   -3.63798e-12   3.96579e-09 DIIS
   @RHF iter  14:  -323.03371909671216   -3.41061e-13   1.54565e-09 DIIS
   @RHF iter  15:  -323.03371909671296   -7.95808e-13   5.39068e-10 DIIS
   @RHF iter  16:  -323.03371909671205    9.09495e-13   2.40691e-10 DIIS
   @RHF iter  17:  -323.03371909671205    0.00000e+00   1.06431e-10 DIIS
   @RHF iter  18:  -323.03371909671347   -1.42109e-12   3.66826e-11 DIIS
  Energy and wave function converged.


  ==> Post-Iterations <==

    Orbital Energies [Eh]
    ---------------------

    Doubly Occupied:                                                      

       1A    -20.518077     2A    -20.492023     3A    -15.578890  
       4A    -11.334570     5A    -11.255481     6A    -11.232170  
       7A     -1.357349     8A     -1.321657     9A     -1.204809  
      10A     -0.994301    11A     -0.896375    12A     -0.787373  
      13A     -0.718464    14A     -0.654112    15A     -0.646268  
      16A     -0.605094    17A     -0.593875    18A     -0.568449  
      19A     -0.561051    20A     -0.547389    21A     -0.510217  
      22A     -0.467734    23A     -0.414355    24A     -0.397671  
      25A     -0.388335  

    Virtual:                                                              

      26A      0.170021    27A      0.201688    28A      0.211228  
      29A      0.219365    30A      0.237138    31A      0.245884  
      32A      0.274313    33A      0.280319    34A      0.286753  
      35A      0.293028    36A      0.380106    37A      0.392017  
      38A      0.477752    39A      0.558688    40A      0.643840  
      41A      0.649999    42A      0.655884    43A      0.659702  
      44A      0.709869    45A      0.734970    46A      0.742248  
      47A      0.749820    48A      0.759366    49A      0.830198  
      50A      0.851310    51A      0.870807    52A      0.877500  
      53A      0.893811    54A      0.913619    55A      0.919757  
      56A      0.933496    57A      0.949942    58A      1.009467  
      59A      1.018944    60A      1.063925    61A      1.096342  
      62A      1.138088    63A      1.155073    64A      1.188807  
      65A      1.196088    66A      1.277652    67A      1.334219  
      68A      1.340127    69A      1.359816    70A      1.393302  
      71A      1.417580    72A      1.464197    73A      1.475594  
      74A      1.511368    75A      1.530804    76A      1.661629  
      77A      1.664779    78A      1.679107    79A      1.690351  
      80A      1.727003    81A      1.745306    82A      1.822338  
      83A      1.864465    84A      1.873154    85A      1.892920  
      86A      1.904652    87A      1.913022    88A      1.913984  
      89A      1.949957    90A      1.978420    91A      1.979178  
      92A      1.983398    93A      2.043080    94A      2.075864  
      95A      2.086986    96A      2.185955    97A      2.189624  
      98A      2.220502    99A      2.282070   100A      2.304046  
     101A      2.383945   102A      2.399663   103A      2.419780  
     104A      2.458115   105A      2.509657   106A      2.535394  
     107A      2.542118   108A      2.594624   109A      2.633982  
     110A      2.719986   111A      2.751961   112A      2.762367  
     113A      2.775410   114A      2.788221   115A      2.809285  
     116A      2.876109   117A      2.977659   118A      3.104909  
     119A      3.152581   120A      3.296019   121A      3.331071  
     122A      3.414003   123A      3.475148   124A      3.520907  
     125A      3.559123   126A      3.628499   127A      3.880577  
     128A      3.934030   129A      4.119739  

    Final Occupation by Irrep:
              A 
    DOCC [    25 ]

  @RHF Final Energy:  -323.03371909671347

   => Energetics <=

    Nuclear Repulsion Energy =            234.4836432619535174
    One-Electron Energy =                -906.9425467795610984
    Two-Electron Energy =                 349.4251844208941407
    Total Energy =                       -323.0337190967134688

Computation Completed


Properties will be evaluated at   0.000000,   0.000000,   0.000000 [a0]

Properties computed using the SCF density matrix

  Nuclear Dipole Moment: [e a0]
     X:     0.4518      Y:     2.3500      Z:    -0.4023

  Electronic Dipole Moment: [e a0]
     X:     0.1224      Y:    -3.2688      Z:     0.9239

  Dipole Moment: [e a0]
     X:     0.5742      Y:    -0.9189      Z:     0.5215     Total:     1.2025

  Dipole Moment: [D]
     X:     1.4595      Y:    -2.3355      Z:     1.3256     Total:     3.0565


*** tstop() called on ds3 at Sun Apr 26 20:12:57 2020
Module time:
	user time   =      11.78 seconds =       0.20 minutes
	system time =       5.92 seconds =       0.10 minutes
	total time  =         18 seconds =       0.30 minutes
Total time:
	user time   =      11.78 seconds =       0.20 minutes
	system time =       5.92 seconds =       0.10 minutes
	total time  =         18 seconds =       0.30 minutes
                                     G D M A

                                 by Anthony Stone

                           version 2.2.06, 22 June 2011

               Distributed Multipoles from Gaussian wavefunctions


Starting at 20:12:57 on 26 Apr 2020 


Using SCF density matrix from file ./SSI/SSI-037ASN-040THR-1-dimer.test.20023.fchk


                         Distributed Multipole Analysis

Standard DMA

Positions and radii in angstrom
Multipole moments in atomic units, ea_0^k for rank k

C          x =  1.936106  y = -0.880963  z = -1.205572 angstrom
           Maximum rank =  0   Radius =  0.650 angstrom
                   Q00  =  -0.259406

C          x =  0.763106  y = -1.143963  z = -0.310572 angstrom
           Maximum rank =  0   Radius =  0.650 angstrom
                   Q00  =   0.820585

O          x = -0.275894  y = -0.513963  z = -0.457572 angstrom
           Maximum rank =  0   Radius =  0.650 angstrom
                   Q00  =  -0.764652

N          x =  0.901106  y = -2.097963  z =  0.617428 angstrom
           Maximum rank =  0   Radius =  0.650 angstrom
                   Q00  =  -0.541935

H          x =  1.956106  y = -1.635963  z = -1.988572 angstrom
           Maximum rank =  0   Radius =  0.325 angstrom
                   Q00  =   0.118672

H          x =  2.853106  y = -0.991963  z = -0.626572 angstrom
           Maximum rank =  0   Radius =  0.325 angstrom
                   Q00  =   0.077854

H          x =  0.118106  y = -2.301963  z =  1.217428 angstrom
           Maximum rank =  0   Radius =  0.325 angstrom
                   Q00  =   0.216780

H          x =  1.756106  y = -2.628963  z =  0.678428 angstrom
           Maximum rank =  0   Radius =  0.325 angstrom
                   Q00  =   0.200800

H          x =  1.928196  y =  0.123257  z = -1.654452 angstrom
           Maximum rank =  0   Radius =  0.325 angstrom
                   Q00  =   0.132639

C          x = -1.964894  y =  2.648037  z =  0.257428 angstrom
           Maximum rank =  0   Radius =  0.650 angstrom
                   Q00  =  -0.039750

O          x = -1.094894  y =  1.726037  z =  0.888428 angstrom
           Maximum rank =  0   Radius =  0.650 angstrom
                   Q00  =  -0.562630

H          x = -1.574894  y =  1.275037  z =  1.592428 angstrom
           Maximum rank =  0   Radius =  0.325 angstrom
                   Q00  =   0.371358

H          x = -1.469894  y =  3.086037  z = -0.609572 angstrom
           Maximum rank =  0   Radius =  0.325 angstrom
                   Q00  =   0.114946

H          x = -2.894774  y =  2.144137  z = -0.044912 angstrom
           Maximum rank =  0   Radius =  0.325 angstrom
                   Q00  =   0.063773

H          x = -2.180314  y =  3.424407  z =  1.006328 angstrom
           Maximum rank =  0   Radius =  0.325 angstrom
                   Q00  =   0.050966

Total multipoles referred to origin at
           x =   0.000000,  y =    0.000000,  z =    0.000000 angstrom
                   Q00  =  -0.000000

Finished at 20:12:57 on 26 Apr 2020 

  DMA results are available in the Python driver through the
	  variable('DMA DISTRIBUTED MULTIPOLES')
  and
	  variable('DMA TOTAL MULTIPOLES')
  commands.


    Psi4 stopped on: Sunday, 26 April 2020 08:12PM
    Psi4 wall time for execution: 0:00:17.57

*** Psi4 exiting successfully. Buy a developer a beer!
