
    -----------------------------------------------------------------------
          Psi4: An Open-Source Ab Initio Electronic Structure Package
                               Psi4 1.3.2 release

                         Git: Rev {HEAD} ecbda83 


    R. M. Parrish, L. A. Burns, D. G. A. Smith, A. C. Simmonett,
    A. E. DePrince III, E. G. Hohenstein, U. Bozkaya, A. Yu. Sokolov,
    R. Di Remigio, R. M. Richard, J. F. Gonthier, A. M. James,
    H. R. McAlexander, A. Kumar, M. Saitow, X. Wang, B. P. Pritchard,
    P. Verma, H. F. Schaefer III, K. Patkowski, R. A. King, E. F. Valeev,
    F. A. Evangelista, J. M. Turney, T. D. Crawford, and C. D. Sherrill,
    J. Chem. Theory Comput. 13(7) pp 3185--3197 (2017).
    (doi: 10.1021/acs.jctc.7b00174)


                         Additional Contributions by
    P. Kraus, H. Kruse, M. H. Lechner, M. C. Schieber, R. A. Shaw,
    A. Alenaizan, R. Galvelis, Z. L. Glick, S. Lehtola, and J. P. Misiewicz

    -----------------------------------------------------------------------


    Psi4 started on: Monday, 27 April 2020 04:49PM

    Process ID: 28224
    Host:       ds3
    PSIDATADIR: /theoryfs2/ds/metcalf/miniconda2/envs/tf2gpu/share/psi4
    Memory:     500.0 MiB
    Threads:    1
    
  ==> Input File <==

--------------------------------------------------------------------------
import numpy as np
set {scf_type pk
basis cc-pvdz
d_convergence 10
gdma_switch   0
gdma_limit    0
gdma_origin   [ 0.0,  0.0,  0.0 ]
}
molecule test {
    units Angstrom
    0 1
    --
    0 1
    C               -0.911619645559115    -1.670523409683923     1.174904754111149
    C                0.398380354440886    -2.278523409683923     1.653904754111149
    H               -1.700619645559114    -2.423523409683923     1.151904754111149
    H               -1.221619645559115    -0.884523409683923     1.862904754111150
    H               -0.795619645559114    -1.245523409683923     0.175904754111150
    H                0.256380354440885    -2.712523409683923     2.637904754111150
    H                0.712760354440885    -3.057583409683924     0.943817754111149
    H                1.127750354440885    -1.456723409683923     1.705490754111149
    C               -0.017619645559115     1.343476590316077    -1.058095245888851
    C                0.535380354440885     2.600476590316076    -1.776095245888851
    H                0.363380354440885     0.432476590316077    -1.518095245888851
    H                0.305380354440885     1.357476590316077    -0.018095245888850
    H               -1.106619645559114     1.347476590316077    -1.088095245888851
    H                1.617380354440886     2.511476590316077    -1.886095245888850
    H                0.328380354440885     3.463476590316076    -1.144095245888850
    H                0.059230354440885     2.728666590316077    -2.759380845888851

}
e, wfn = energy('scf', return_wfn=True)
gdma(wfn)
dmavals = variable('DMA DISTRIBUTED MULTIPOLES')
charges = np.array(dmavals)
print(charges)
np.save('SSI-203VAL-291ILE-1-dimer.npy', np.array(charges))--------------------------------------------------------------------------

*** tstart() called on ds3
*** at Mon Apr 27 16:49:32 2020

   => Loading Basis Set <=

    Name: CC-PVDZ
    Role: ORBITAL
    Keyword: BASIS
    atoms 1-2, 9-10  entry C          line   138 file /theoryfs2/ds/metcalf/miniconda2/envs/tf2gpu/share/psi4/basis/cc-pvdz.gbs 
    atoms 3-8, 11-16 entry H          line    22 file /theoryfs2/ds/metcalf/miniconda2/envs/tf2gpu/share/psi4/basis/cc-pvdz.gbs 


         ---------------------------------------------------------
                                   SCF
               by Justin Turney, Rob Parrish, Andy Simmonett
                          and Daniel G. A. Smith
                              RHF Reference
                        1 Threads,    500 MiB Core
         ---------------------------------------------------------

  ==> Geometry <==

    Molecular point group: c1
    Full point group: C1

    Geometry (in Angstrom), charge = 0, multiplicity = 1:

       Center              X                  Y                   Z               Mass       
    ------------   -----------------  -----------------  -----------------  -----------------
         C           -0.911619645559    -1.670523409684     1.174904754111    12.000000000000
         C            0.398380354441    -2.278523409684     1.653904754111    12.000000000000
         H           -1.700619645559    -2.423523409684     1.151904754111     1.007825032230
         H           -1.221619645559    -0.884523409684     1.862904754111     1.007825032230
         H           -0.795619645559    -1.245523409684     0.175904754111     1.007825032230
         H            0.256380354441    -2.712523409684     2.637904754111     1.007825032230
         H            0.712760354441    -3.057583409684     0.943817754111     1.007825032230
         H            1.127750354441    -1.456723409684     1.705490754111     1.007825032230
         C           -0.017619645559     1.343476590316    -1.058095245889    12.000000000000
         C            0.535380354441     2.600476590316    -1.776095245889    12.000000000000
         H            0.363380354441     0.432476590316    -1.518095245889     1.007825032230
         H            0.305380354441     1.357476590316    -0.018095245889     1.007825032230
         H           -1.106619645559     1.347476590316    -1.088095245889     1.007825032230
         H            1.617380354441     2.511476590316    -1.886095245889     1.007825032230
         H            0.328380354441     3.463476590316    -1.144095245889     1.007825032230
         H            0.059230354441     2.728666590316    -2.759380845889     1.007825032230

  Running in c1 symmetry.

  Rotational constants: A =      0.57374  B =      0.04303  C =      0.04131 [cm^-1]
  Rotational constants: A =  17200.32194  B =   1290.08066  C =   1238.45523 [MHz]
  Nuclear repulsion =  120.232092107571802

  Charge       = 0
  Multiplicity = 1
  Electrons    = 36
  Nalpha       = 18
  Nbeta        = 18

  ==> Algorithm <==

  SCF Algorithm Type is PK.
  DIIS enabled.
  MOM disabled.
  Fractional occupation disabled.
  Guess Type is SAD.
  Energy threshold   = 1.00e-06
  Density threshold  = 1.00e-10
  Integral threshold = 0.00e+00

  ==> Primary Basis <==

  Basis Set: CC-PVDZ
    Blend: CC-PVDZ
    Number of shells: 60
    Number of basis function: 116
    Number of Cartesian functions: 120
    Spherical Harmonics?: true
    Max angular momentum: 2

  ==> Pre-Iterations <==

   -------------------------------------------------------
    Irrep   Nso     Nmo     Nalpha   Nbeta   Ndocc  Nsocc
   -------------------------------------------------------
     A        116     116       0       0       0       0
   -------------------------------------------------------
    Total     116     116      18      18      18       0
   -------------------------------------------------------

  ==> Integral Setup <==

  Using integral reordering PK algorithm.
  Sizing the integral batches needed.
  Building batch lookup table.
   Calculation information:
      Number of atoms:                  16
      Number of AO shells:              60
      Number of primitives:            148
      Number of atomic orbitals:       120
      Number of basis functions:       116

      Integral cutoff                 1.00e-12
      Number of threads:                 1

	Batch   1 pq = [       0,    6786] index = [             0,23028291] size =     23028291
  Task number: 3
  Buffer size: 11059200
  Buffer per thread: 2
  We computed 1361270 shell quartets total.
  Whereas there are 1675365 unique shell quartets.

  ==> DiskJK: Disk-Based J/K Matrices <==

    J tasked:                  Yes
    K tasked:                  Yes
    wK tasked:                  No
    Memory [MiB]:              375
    Schwarz Cutoff:          1E-12

    OpenMP threads:              1

  Minimum eigenvalue in the overlap matrix is 6.7551874084E-03.
  Using Symmetric Orthogonalization.

  SCF Guess: Superposition of Atomic Densities via on-the-fly atomic UHF.

  ==> Iterations <==

                        Total Energy        Delta E     RMS |[F,P]|

   @RHF iter SAD:  -157.32925613538185   -1.57329e+02   0.00000e+00 
   @RHF iter   1:  -158.30805186061673   -9.78796e-01   4.20093e-03 DIIS
   @RHF iter   2:  -158.44081092103241   -1.32759e-01   1.78344e-03 DIIS
   @RHF iter   3:  -158.46392295372806   -2.31120e-02   3.48549e-04 DIIS
   @RHF iter   4:  -158.46574263180707   -1.81968e-03   3.88200e-05 DIIS
   @RHF iter   5:  -158.46576654201800   -2.39102e-05   6.61494e-06 DIIS
   @RHF iter   6:  -158.46576719842344   -6.56405e-07   1.09977e-06 DIIS
   @RHF iter   7:  -158.46576721050292   -1.20795e-08   3.35830e-07 DIIS
   @RHF iter   8:  -158.46576721152442   -1.02150e-09   4.20731e-08 DIIS
   @RHF iter   9:  -158.46576721155284   -2.84217e-11   8.33160e-09 DIIS
   @RHF iter  10:  -158.46576721155441   -1.56319e-12   2.49041e-09 DIIS
   @RHF iter  11:  -158.46576721155424    1.70530e-13   7.12564e-10 DIIS
   @RHF iter  12:  -158.46576721155475   -5.11591e-13   1.57913e-10 DIIS
   @RHF iter  13:  -158.46576721155466    8.52651e-14   2.96316e-11 DIIS
  Energy and wave function converged.


  ==> Post-Iterations <==

    Orbital Energies [Eh]
    ---------------------

    Doubly Occupied:                                                      

       1A    -11.220229     2A    -11.218539     3A    -11.217817  
       4A    -11.213952     5A     -1.019868     6A     -1.014251  
       7A     -0.839930     8A     -0.832666     9A     -0.600450  
      10A     -0.599647    11A     -0.597146    12A     -0.596261  
      13A     -0.501036    14A     -0.493075    15A     -0.490210  
      16A     -0.488439    17A     -0.483712    18A     -0.482085  

    Virtual:                                                              

      19A      0.170839    20A      0.194571    21A      0.227653  
      22A      0.232868    23A      0.241488    24A      0.257033  
      25A      0.264004    26A      0.274804    27A      0.279181  
      28A      0.287907    29A      0.311077    30A      0.327589  
      31A      0.392415    32A      0.410413    33A      0.583447  
      34A      0.591333    35A      0.597338    36A      0.603387  
      37A      0.608815    38A      0.636539    39A      0.676908  
      40A      0.690790    41A      0.697795    42A      0.734815  
      43A      0.848021    44A      0.872764    45A      0.885785  
      46A      0.889577    47A      0.894965    48A      0.896232  
      49A      0.899395    50A      0.908905    51A      0.912987  
      52A      0.917166    53A      0.934688    54A      0.940817  
      55A      0.972839    56A      1.010002    57A      1.119362  
      58A      1.121702    59A      1.128739    60A      1.131951  
      61A      1.232295    62A      1.258859    63A      1.469531  
      64A      1.476752    65A      1.481270    66A      1.491365  
      67A      1.564575    68A      1.584524    69A      1.673227  
      70A      1.680297    71A      1.692800    72A      1.697047  
      73A      1.845297    74A      1.852492    75A      1.863653  
      76A      1.874718    77A      1.898787    78A      1.906659  
      79A      1.934554    80A      1.940258    81A      1.943130  
      82A      1.944613    83A      1.949296    84A      1.955454  
      85A      1.968023    86A      1.969626    87A      1.980102  
      88A      2.031885    89A      2.107605    90A      2.114245  
      91A      2.126017    92A      2.129526    93A      2.276360  
      94A      2.293120    95A      2.321177    96A      2.322819  
      97A      2.442151    98A      2.451650    99A      2.461020  
     100A      2.475763   101A      2.570066   102A      2.571850  
     103A      2.576910   104A      2.583051   105A      2.764545  
     106A      2.769590   107A      2.782240   108A      2.802606  
     109A      2.831453   110A      2.837524   111A      2.845042  
     112A      2.856681   113A      2.941237   114A      2.945940  
     115A      2.958492   116A      2.970429  

    Final Occupation by Irrep:
              A 
    DOCC [    18 ]

  @RHF Final Energy:  -158.46576721155466

   => Energetics <=

    Nuclear Repulsion Energy =            120.2320921075718019
    One-Electron Energy =                -449.5770909018100383
    Two-Electron Energy =                 170.8792315826835591
    Total Energy =                       -158.4657672115546632

Computation Completed


Properties will be evaluated at   0.000000,   0.000000,   0.000000 [a0]

Properties computed using the SCF density matrix

  Nuclear Dipole Moment: [e a0]
     X:    -0.0505      Y:     0.0569      Z:     0.0601

  Electronic Dipole Moment: [e a0]
     X:     0.0430      Y:    -0.0432      Z:    -0.0547

  Dipole Moment: [e a0]
     X:    -0.0074      Y:     0.0137      Z:     0.0054     Total:     0.0165

  Dipole Moment: [D]
     X:    -0.0189      Y:     0.0348      Z:     0.0138     Total:     0.0419


*** tstop() called on ds3 at Mon Apr 27 16:49:44 2020
Module time:
	user time   =       7.98 seconds =       0.13 minutes
	system time =       4.37 seconds =       0.07 minutes
	total time  =         12 seconds =       0.20 minutes
Total time:
	user time   =       7.98 seconds =       0.13 minutes
	system time =       4.37 seconds =       0.07 minutes
	total time  =         12 seconds =       0.20 minutes
                                     G D M A

                                 by Anthony Stone

                           version 2.2.06, 22 June 2011

               Distributed Multipoles from Gaussian wavefunctions


Starting at 16:49:44 on 27 Apr 2020 


Using SCF density matrix from file ./SSI/SSI-203VAL-291ILE-1-dimer.test.28224.fchk


                         Distributed Multipole Analysis

Standard DMA

Positions and radii in angstrom
Multipole moments in atomic units, ea_0^k for rank k

C          x = -0.911620  y = -1.670523  z =  1.174905 angstrom
           Maximum rank =  0   Radius =  0.650 angstrom
                   Q00  =  -0.240780

C          x =  0.398380  y = -2.278523  z =  1.653905 angstrom
           Maximum rank =  0   Radius =  0.650 angstrom
                   Q00  =  -0.228716

H          x = -1.700620  y = -2.423523  z =  1.151905 angstrom
           Maximum rank =  0   Radius =  0.325 angstrom
                   Q00  =   0.075280

H          x = -1.221620  y = -0.884523  z =  1.862905 angstrom
           Maximum rank =  0   Radius =  0.325 angstrom
                   Q00  =   0.075403

H          x = -0.795620  y = -1.245523  z =  0.175905 angstrom
           Maximum rank =  0   Radius =  0.325 angstrom
                   Q00  =   0.083675

H          x =  0.256380  y = -2.712523  z =  2.637905 angstrom
           Maximum rank =  0   Radius =  0.325 angstrom
                   Q00  =   0.080952

H          x =  0.712760  y = -3.057583  z =  0.943818 angstrom
           Maximum rank =  0   Radius =  0.325 angstrom
                   Q00  =   0.077601

H          x =  1.127750  y = -1.456723  z =  1.705491 angstrom
           Maximum rank =  0   Radius =  0.325 angstrom
                   Q00  =   0.075134

C          x = -0.017620  y =  1.343477  z = -1.058095 angstrom
           Maximum rank =  0   Radius =  0.650 angstrom
                   Q00  =  -0.246010

C          x =  0.535380  y =  2.600477  z = -1.776095 angstrom
           Maximum rank =  0   Radius =  0.650 angstrom
                   Q00  =  -0.238278

H          x =  0.363380  y =  0.432477  z = -1.518095 angstrom
           Maximum rank =  0   Radius =  0.325 angstrom
                   Q00  =   0.078911

H          x =  0.305380  y =  1.357477  z = -0.018095 angstrom
           Maximum rank =  0   Radius =  0.325 angstrom
                   Q00  =   0.079575

H          x = -1.106620  y =  1.347477  z = -1.088095 angstrom
           Maximum rank =  0   Radius =  0.325 angstrom
                   Q00  =   0.081858

H          x =  1.617380  y =  2.511477  z = -1.886095 angstrom
           Maximum rank =  0   Radius =  0.325 angstrom
                   Q00  =   0.082148

H          x =  0.328380  y =  3.463477  z = -1.144095 angstrom
           Maximum rank =  0   Radius =  0.325 angstrom
                   Q00  =   0.080830

H          x =  0.059230  y =  2.728667  z = -2.759381 angstrom
           Maximum rank =  0   Radius =  0.325 angstrom
                   Q00  =   0.082416

Total multipoles referred to origin at
           x =   0.000000,  y =    0.000000,  z =    0.000000 angstrom
                   Q00  =  -0.000000

Finished at 16:49:44 on 27 Apr 2020 

  DMA results are available in the Python driver through the
	  variable('DMA DISTRIBUTED MULTIPOLES')
  and
	  variable('DMA TOTAL MULTIPOLES')
  commands.


    Psi4 stopped on: Monday, 27 April 2020 04:49PM
    Psi4 wall time for execution: 0:00:12.01

*** Psi4 exiting successfully. Buy a developer a beer!
