
    -----------------------------------------------------------------------
          Psi4: An Open-Source Ab Initio Electronic Structure Package
                               Psi4 1.3.2 release

                         Git: Rev {HEAD} ecbda83 


    R. M. Parrish, L. A. Burns, D. G. A. Smith, A. C. Simmonett,
    A. E. DePrince III, E. G. Hohenstein, U. Bozkaya, A. Yu. Sokolov,
    R. Di Remigio, R. M. Richard, J. F. Gonthier, A. M. James,
    H. R. McAlexander, A. Kumar, M. Saitow, X. Wang, B. P. Pritchard,
    P. Verma, H. F. Schaefer III, K. Patkowski, R. A. King, E. F. Valeev,
    F. A. Evangelista, J. M. Turney, T. D. Crawford, and C. D. Sherrill,
    J. Chem. Theory Comput. 13(7) pp 3185--3197 (2017).
    (doi: 10.1021/acs.jctc.7b00174)


                         Additional Contributions by
    P. Kraus, H. Kruse, M. H. Lechner, M. C. Schieber, R. A. Shaw,
    A. Alenaizan, R. Galvelis, Z. L. Glick, S. Lehtola, and J. P. Misiewicz

    -----------------------------------------------------------------------


    Psi4 started on: Sunday, 26 April 2020 08:51PM

    Process ID: 10510
    Host:       ds3
    PSIDATADIR: /theoryfs2/ds/metcalf/miniconda2/envs/tf2gpu/share/psi4
    Memory:     500.0 MiB
    Threads:    1
    
  ==> Input File <==

--------------------------------------------------------------------------
import numpy as np
set {scf_type pk
basis cc-pvdz
d_convergence 10
gdma_switch   0
gdma_limit    0
gdma_origin   [ 0.0,  0.0,  0.0 ]
}
molecule test {
    units Angstrom
    0 1
    --
    0 1
    C               -0.050727439318381     0.880964027412875    -3.288672820896628
    C               -0.092727439318381     1.448964027412875     0.308327179103373
    C               -0.059727439318381    -0.341035972587125    -0.971672820896627
    C               -0.072727439318381     0.756964027412875    -1.784672820896627
    N               -0.068727439318381     0.120964027412875     0.327327179103373
    N               -0.104727439318381     1.856964027412875    -0.955672820896627
    H               -0.083727439318381    -0.457035972587125     1.166327179103373
    H               -0.098727439318381     2.094964027412875     1.179327179103373
    H               -0.040727439318381    -1.374035972587125    -1.281672820896627
    H                0.827272560681619     0.351964027412875    -3.654672820896627
    H                0.056272560681619     1.932964027412875    -3.556672820896627
    H               -0.943537439318381     0.469174027412875    -3.781952820896627
    C                0.794272560681619    -2.335035972587125     2.933327179103372
    O               -0.365727439318381    -1.653035972587126     2.500327179103373
    H               -1.010727439318381    -1.651035972587126     3.222327179103373
    H                0.887272560681619    -2.257035972587125     4.018327179103372
    H                1.666272560681619    -1.856035972587125     2.485327179103373
    H                0.782702560681619    -3.392595972587125     2.630959179103372

}
e, wfn = energy('scf', return_wfn=True)
gdma(wfn)
dmavals = variable('DMA DISTRIBUTED MULTIPOLES')
charges = np.array(dmavals)
print(charges)
np.save('SSI-031HIE-037SER-1-dimer.npy', np.array(charges))--------------------------------------------------------------------------

*** tstart() called on ds3
*** at Sun Apr 26 20:51:56 2020

   => Loading Basis Set <=

    Name: CC-PVDZ
    Role: ORBITAL
    Keyword: BASIS
    atoms 1-4, 13     entry C          line   138 file /theoryfs2/ds/metcalf/miniconda2/envs/tf2gpu/share/psi4/basis/cc-pvdz.gbs 
    atoms 5-6         entry N          line   168 file /theoryfs2/ds/metcalf/miniconda2/envs/tf2gpu/share/psi4/basis/cc-pvdz.gbs 
    atoms 7-12, 15-18 entry H          line    22 file /theoryfs2/ds/metcalf/miniconda2/envs/tf2gpu/share/psi4/basis/cc-pvdz.gbs 
    atoms 14          entry O          line   198 file /theoryfs2/ds/metcalf/miniconda2/envs/tf2gpu/share/psi4/basis/cc-pvdz.gbs 


         ---------------------------------------------------------
                                   SCF
               by Justin Turney, Rob Parrish, Andy Simmonett
                          and Daniel G. A. Smith
                              RHF Reference
                        1 Threads,    500 MiB Core
         ---------------------------------------------------------

  ==> Geometry <==

    Molecular point group: c1
    Full point group: C1

    Geometry (in Angstrom), charge = 0, multiplicity = 1:

       Center              X                  Y                   Z               Mass       
    ------------   -----------------  -----------------  -----------------  -----------------
         C           -0.050727439318     0.880964027413    -3.288672820897    12.000000000000
         C           -0.092727439318     1.448964027413     0.308327179103    12.000000000000
         C           -0.059727439318    -0.341035972587    -0.971672820897    12.000000000000
         C           -0.072727439318     0.756964027413    -1.784672820897    12.000000000000
         N           -0.068727439318     0.120964027413     0.327327179103    14.003074004430
         N           -0.104727439318     1.856964027413    -0.955672820897    14.003074004430
         H           -0.083727439318    -0.457035972587     1.166327179103     1.007825032230
         H           -0.098727439318     2.094964027413     1.179327179103     1.007825032230
         H           -0.040727439318    -1.374035972587    -1.281672820897     1.007825032230
         H            0.827272560682     0.351964027413    -3.654672820897     1.007825032230
         H            0.056272560682     1.932964027413    -3.556672820897     1.007825032230
         H           -0.943537439318     0.469174027413    -3.781952820897     1.007825032230
         C            0.794272560682    -2.335035972587     2.933327179103    12.000000000000
         O           -0.365727439318    -1.653035972587     2.500327179103    15.994914619570
         H           -1.010727439318    -1.651035972587     3.222327179103     1.007825032230
         H            0.887272560682    -2.257035972587     4.018327179103     1.007825032230
         H            1.666272560682    -1.856035972587     2.485327179103     1.007825032230
         H            0.782702560682    -3.392595972587     2.630959179103     1.007825032230

  Running in c1 symmetry.

  Rotational constants: A =      0.17641  B =      0.02582  C =      0.02342 [cm^-1]
  Rotational constants: A =   5288.74676  B =    774.19929  C =    702.18261 [MHz]
  Nuclear repulsion =  356.261358432329985

  Charge       = 0
  Multiplicity = 1
  Electrons    = 62
  Nalpha       = 31
  Nbeta        = 31

  ==> Algorithm <==

  SCF Algorithm Type is PK.
  DIIS enabled.
  MOM disabled.
  Fractional occupation disabled.
  Guess Type is SAD.
  Energy threshold   = 1.00e-06
  Density threshold  = 1.00e-10
  Integral threshold = 0.00e+00

  ==> Primary Basis <==

  Basis Set: CC-PVDZ
    Blend: CC-PVDZ
    Number of shells: 78
    Number of basis function: 162
    Number of Cartesian functions: 170
    Spherical Harmonics?: true
    Max angular momentum: 2

  ==> Pre-Iterations <==

   -------------------------------------------------------
    Irrep   Nso     Nmo     Nalpha   Nbeta   Ndocc  Nsocc
   -------------------------------------------------------
     A        162     162       0       0       0       0
   -------------------------------------------------------
    Total     162     162      31      31      31       0
   -------------------------------------------------------

  ==> Integral Setup <==

  Using integral reordering PK algorithm.
  Sizing the integral batches needed.
  Building batch lookup table.
   Calculation information:
      Number of atoms:                  18
      Number of AO shells:              78
      Number of primitives:            226
      Number of atomic orbitals:       170
      Number of basis functions:       162

      Integral cutoff                 1.00e-12
      Number of threads:                 1

	Batch   1 pq = [       0,    9405] index = [             0,44231715] size =     44231715
	Batch   2 pq = [    9405,   13203] index = [      44231715,87166206] size =     42934491
  Task number: 8
  Buffer size: 11059200
  Buffer per thread: 2
  We computed 3740020 shell quartets total.
  Whereas there are 4747821 unique shell quartets.

  ==> DiskJK: Disk-Based J/K Matrices <==

    J tasked:                  Yes
    K tasked:                  Yes
    wK tasked:                  No
    Memory [MiB]:              375
    Schwarz Cutoff:          1E-12

    OpenMP threads:              1

  Minimum eigenvalue in the overlap matrix is 1.2203439168E-03.
  Using Symmetric Orthogonalization.

  SCF Guess: Superposition of Atomic Densities via on-the-fly atomic UHF.

  ==> Iterations <==

                        Total Energy        Delta E     RMS |[F,P]|

   @RHF iter SAD:  -377.97951117486741   -3.77980e+02   0.00000e+00 
   @RHF iter   1:  -378.74051394808106   -7.61003e-01   3.43650e-03 DIIS
   @RHF iter   2:  -378.88921198260965   -1.48698e-01   1.75566e-03 DIIS
   @RHF iter   3:  -378.92376641546502   -3.45544e-02   4.29117e-04 DIIS
   @RHF iter   4:  -378.92673815323866   -2.97174e-03   1.65740e-04 DIIS
   @RHF iter   5:  -378.92713677956397   -3.98626e-04   3.39706e-05 DIIS
   @RHF iter   6:  -378.92715962896602   -2.28494e-05   1.29619e-05 DIIS
   @RHF iter   7:  -378.92716363972607   -4.01076e-06   4.34359e-06 DIIS
   @RHF iter   8:  -378.92716440353394   -7.63808e-07   1.70870e-06 DIIS
   @RHF iter   9:  -378.92716456076761   -1.57234e-07   6.67453e-07 DIIS
   @RHF iter  10:  -378.92716457810707   -1.73395e-08   2.33039e-07 DIIS
   @RHF iter  11:  -378.92716458110993   -3.00287e-09   6.92051e-08 DIIS
   @RHF iter  12:  -378.92716458131633   -2.06398e-10   3.06514e-08 DIIS
   @RHF iter  13:  -378.92716458134436   -2.80238e-11   9.61155e-09 DIIS
   @RHF iter  14:  -378.92716458134657   -2.21689e-12   2.94394e-09 DIIS
   @RHF iter  15:  -378.92716458134856   -1.98952e-12   1.40956e-09 DIIS
   @RHF iter  16:  -378.92716458134873   -1.70530e-13   4.18186e-10 DIIS
   @RHF iter  17:  -378.92716458134942   -6.82121e-13   1.89232e-10 DIIS
   @RHF iter  18:  -378.92716458134714    2.27374e-12   5.81092e-11 DIIS
  Energy and wave function converged.


  ==> Post-Iterations <==

    Orbital Energies [Eh]
    ---------------------

    Doubly Occupied:                                                      

       1A    -20.592868     2A    -15.589637     3A    -15.508925  
       4A    -11.303183     5A    -11.270381     6A    -11.230849  
       7A    -11.225083     8A    -11.211815     9A     -1.394318  
      10A     -1.316760    11A     -1.130637    12A     -1.009940  
      13A     -0.951164    14A     -0.923646    15A     -0.797634  
      16A     -0.743592    17A     -0.730965    18A     -0.710891  
      19A     -0.648196    20A     -0.628665    21A     -0.587748  
      22A     -0.581611    23A     -0.577063    24A     -0.537115  
      25A     -0.533111    26A     -0.518890    27A     -0.503880  
      28A     -0.479198    29A     -0.391173    30A     -0.357094  
      31A     -0.289095  

    Virtual:                                                              

      32A      0.153232    33A      0.195937    34A      0.203796  
      35A      0.212801    36A      0.224272    37A      0.245433  
      38A      0.247901    39A      0.250053    40A      0.253591  
      41A      0.284854    42A      0.309982    43A      0.320609  
      44A      0.362992    45A      0.388883    46A      0.422236  
      47A      0.465631    48A      0.490683    49A      0.500937  
      50A      0.603791    51A      0.615662    52A      0.618741  
      53A      0.653447    54A      0.667969    55A      0.679294  
      56A      0.698185    57A      0.714438    58A      0.725671  
      59A      0.756381    60A      0.773441    61A      0.780835  
      62A      0.792182    63A      0.832261    64A      0.834645  
      65A      0.858818    66A      0.864384    67A      0.870264  
      68A      0.886364    69A      0.893860    70A      0.919692  
      71A      0.927689    72A      0.954086    73A      0.986211  
      74A      0.989265    75A      1.065841    76A      1.070818  
      77A      1.103062    78A      1.115346    79A      1.119416  
      80A      1.133646    81A      1.150712    82A      1.158690  
      83A      1.179402    84A      1.198956    85A      1.253419  
      86A      1.278458    87A      1.288561    88A      1.310616  
      89A      1.336074    90A      1.351191    91A      1.372679  
      92A      1.446324    93A      1.474215    94A      1.493316  
      95A      1.520855    96A      1.551757    97A      1.585875  
      98A      1.635415    99A      1.645626   100A      1.651813  
     101A      1.672391   102A      1.700516   103A      1.717545  
     104A      1.780650   105A      1.797239   106A      1.826555  
     107A      1.839123   108A      1.860206   109A      1.872164  
     110A      1.891150   111A      1.906512   112A      1.916854  
     113A      1.925795   114A      1.932918   115A      1.951646  
     116A      1.954102   117A      1.971627   118A      1.986535  
     119A      2.016040   120A      2.037461   121A      2.068987  
     122A      2.093840   123A      2.103001   124A      2.204527  
     125A      2.241971   126A      2.251520   127A      2.278671  
     128A      2.285532   129A      2.335629   130A      2.354822  
     131A      2.371315   132A      2.384056   133A      2.398644  
     134A      2.431261   135A      2.465567   136A      2.495427  
     137A      2.573343   138A      2.595793   139A      2.632669  
     140A      2.690678   141A      2.728422   142A      2.740063  
     143A      2.743807   144A      2.759411   145A      2.789003  
     146A      2.808063   147A      2.819554   148A      2.848370  
     149A      2.887876   150A      2.931478   151A      2.937663  
     152A      2.999471   153A      3.088280   154A      3.183210  
     155A      3.243393   156A      3.289457   157A      3.350775  
     158A      3.421412   159A      3.486682   160A      3.560252  
     161A      3.842064   162A      4.064426  

    Final Occupation by Irrep:
              A 
    DOCC [    31 ]

  @RHF Final Energy:  -378.92716458134714

   => Energetics <=

    Nuclear Repulsion Energy =            356.2613584323299847
    One-Electron Energy =               -1221.8267926311991687
    Two-Electron Energy =                 486.6382696175220417
    Total Energy =                       -378.9271645813471423

Computation Completed


Properties will be evaluated at   0.000000,   0.000000,   0.000000 [a0]

Properties computed using the SCF density matrix

  Nuclear Dipole Moment: [e a0]
     X:     1.9134      Y:    -5.7685      Z:     2.2897

  Electronic Dipole Moment: [e a0]
     X:    -1.7957      Y:     4.1178      Z:    -0.3957

  Dipole Moment: [e a0]
     X:     0.1177      Y:    -1.6508      Z:     1.8940     Total:     2.5152

  Dipole Moment: [D]
     X:     0.2992      Y:    -4.1958      Z:     4.8140     Total:     6.3929


*** tstop() called on ds3 at Sun Apr 26 20:52:46 2020
Module time:
	user time   =      31.21 seconds =       0.52 minutes
	system time =      14.71 seconds =       0.25 minutes
	total time  =         50 seconds =       0.83 minutes
Total time:
	user time   =      31.21 seconds =       0.52 minutes
	system time =      14.71 seconds =       0.25 minutes
	total time  =         50 seconds =       0.83 minutes
                                     G D M A

                                 by Anthony Stone

                           version 2.2.06, 22 June 2011

               Distributed Multipoles from Gaussian wavefunctions


Starting at 20:52:46 on 26 Apr 2020 


Using SCF density matrix from file ./SSI/SSI-031HIE-037SER-1-dimer.test.10510.fchk


                         Distributed Multipole Analysis

Standard DMA

Positions and radii in angstrom
Multipole moments in atomic units, ea_0^k for rank k

C          x = -0.050727  y =  0.880964  z = -3.288673 angstrom
           Maximum rank =  0   Radius =  0.650 angstrom
                   Q00  =  -0.200976

C          x = -0.092727  y =  1.448964  z =  0.308327 angstrom
           Maximum rank =  0   Radius =  0.650 angstrom
                   Q00  =   0.463841

C          x = -0.059727  y = -0.341036  z = -0.971673 angstrom
           Maximum rank =  0   Radius =  0.650 angstrom
                   Q00  =   0.008575

C          x = -0.072727  y =  0.756964  z = -1.784673 angstrom
           Maximum rank =  0   Radius =  0.650 angstrom
                   Q00  =   0.215090

N          x = -0.068727  y =  0.120964  z =  0.327327 angstrom
           Maximum rank =  0   Radius =  0.650 angstrom
                   Q00  =  -0.513081

N          x = -0.104727  y =  1.856964  z = -0.955673 angstrom
           Maximum rank =  0   Radius =  0.650 angstrom
                   Q00  =  -0.782594

H          x = -0.083727  y = -0.457036  z =  1.166327 angstrom
           Maximum rank =  0   Radius =  0.325 angstrom
                   Q00  =   0.281787

H          x = -0.098727  y =  2.094964  z =  1.179327 angstrom
           Maximum rank =  0   Radius =  0.325 angstrom
                   Q00  =   0.114070

H          x = -0.040727  y = -1.374036  z = -1.281673 angstrom
           Maximum rank =  0   Radius =  0.325 angstrom
                   Q00  =   0.087642

H          x =  0.827273  y =  0.351964  z = -3.654673 angstrom
           Maximum rank =  0   Radius =  0.325 angstrom
                   Q00  =   0.093561

H          x =  0.056273  y =  1.932964  z = -3.556673 angstrom
           Maximum rank =  0   Radius =  0.325 angstrom
                   Q00  =   0.120427

H          x = -0.943537  y =  0.469174  z = -3.781953 angstrom
           Maximum rank =  0   Radius =  0.325 angstrom
                   Q00  =   0.095630

C          x =  0.794273  y = -2.335036  z =  2.933327 angstrom
           Maximum rank =  0   Radius =  0.650 angstrom
                   Q00  =  -0.058612

O          x = -0.365727  y = -1.653036  z =  2.500327 angstrom
           Maximum rank =  0   Radius =  0.650 angstrom
                   Q00  =  -0.624158

H          x = -1.010727  y = -1.651036  z =  3.222327 angstrom
           Maximum rank =  0   Radius =  0.325 angstrom
                   Q00  =   0.415538

H          x =  0.887273  y = -2.257036  z =  4.018327 angstrom
           Maximum rank =  0   Radius =  0.325 angstrom
                   Q00  =   0.085403

H          x =  1.666273  y = -1.856036  z =  2.485327 angstrom
           Maximum rank =  0   Radius =  0.325 angstrom
                   Q00  =   0.104760

H          x =  0.782703  y = -3.392596  z =  2.630959 angstrom
           Maximum rank =  0   Radius =  0.325 angstrom
                   Q00  =   0.093096

Total multipoles referred to origin at
           x =   0.000000,  y =    0.000000,  z =    0.000000 angstrom
                   Q00  =  -0.000000

Finished at 20:52:46 on 26 Apr 2020 

  DMA results are available in the Python driver through the
	  variable('DMA DISTRIBUTED MULTIPOLES')
  and
	  variable('DMA TOTAL MULTIPOLES')
  commands.


    Psi4 stopped on: Sunday, 26 April 2020 08:52PM
    Psi4 wall time for execution: 0:00:49.98

*** Psi4 exiting successfully. Buy a developer a beer!
