
    -----------------------------------------------------------------------
          Psi4: An Open-Source Ab Initio Electronic Structure Package
                               Psi4 1.3.2 release

                         Git: Rev {HEAD} ecbda83 


    R. M. Parrish, L. A. Burns, D. G. A. Smith, A. C. Simmonett,
    A. E. DePrince III, E. G. Hohenstein, U. Bozkaya, A. Yu. Sokolov,
    R. Di Remigio, R. M. Richard, J. F. Gonthier, A. M. James,
    H. R. McAlexander, A. Kumar, M. Saitow, X. Wang, B. P. Pritchard,
    P. Verma, H. F. Schaefer III, K. Patkowski, R. A. King, E. F. Valeev,
    F. A. Evangelista, J. M. Turney, T. D. Crawford, and C. D. Sherrill,
    J. Chem. Theory Comput. 13(7) pp 3185--3197 (2017).
    (doi: 10.1021/acs.jctc.7b00174)


                         Additional Contributions by
    P. Kraus, H. Kruse, M. H. Lechner, M. C. Schieber, R. A. Shaw,
    A. Alenaizan, R. Galvelis, Z. L. Glick, S. Lehtola, and J. P. Misiewicz

    -----------------------------------------------------------------------


    Psi4 started on: Tuesday, 28 April 2020 11:00AM

    Process ID: 26205
    Host:       ds3
    PSIDATADIR: /theoryfs2/ds/metcalf/miniconda2/envs/tf2gpu/share/psi4
    Memory:     500.0 MiB
    Threads:    1
    
  ==> Input File <==

--------------------------------------------------------------------------
import numpy as np
set {scf_type pk
basis cc-pvdz
d_convergence 10
gdma_switch   0
gdma_limit    0
gdma_origin   [ 0.0,  0.0,  0.0 ]
}
molecule test {
    units Angstrom
    0 1
    --
    0 1
    C               -0.765913931596728    -2.979489378922306    -0.346917284368515
    C                0.115086068403272    -2.786489378922306    -1.563917284368515
    C               -0.030913931596728    -3.497489378922305     0.874082715631485
    O                1.212086068403273    -3.488489378922305     0.962082715631485
    N               -0.805913931596728    -3.945489378922305     1.849082715631485
    H               -1.225913931596728    -2.032489378922306    -0.076917284368515
    H               -1.552913931596728    -3.689489378922305    -0.589917284368515
    H                0.564086068403272    -3.741489378922306    -1.842917284368515
    H                0.912086068403272    -2.087489378922306    -1.322917284368515
    H               -0.390913931596728    -4.257489378922306     2.708082715631485
    H               -1.813913931596727    -3.886489378922306     1.729082715631485
    H               -0.465103931596728    -2.388873378922305    -2.409662284368514
    C                2.436086068403272     0.478510621077694    -1.260917284368515
    C                0.724086068403272     0.008510621077694     0.560082715631485
    C                1.225086068403272     0.783510621077695    -0.418917284368515
    C               -0.664913931596728     1.736510621077694     0.453082715631485
    C                0.356086068403272     1.910510621077695    -0.516917284368515
    C               -1.665913931596728     2.668510621077695     0.652082715631485
    C                0.342086068403272     3.041510621077694    -1.331917284368515
    C               -1.652913931596728     3.798510621077694    -0.180917284368515
    C               -0.638913931596727     3.990510621077695    -1.119917284368515
    N               -0.392913931596728     0.563510621077694     1.085082715631485
    H                1.163086068403273    -0.925489378922306     0.892082715631485
    H               -0.872913931596728     0.165510621077694     1.898082715631485
    H                2.202086068403272     0.767510621077695    -2.279917284368515
    H                2.587086068403272    -0.600489378922306    -1.263917284368515
    H               -2.430913931596728     2.518510621077695     1.400082715631485
    H                1.089086068403273     3.181510621077694    -2.098917284368515
    H               -2.428913931596728     4.545510621077694    -0.074917284368515
    H               -0.666913931596728     4.863510621077695    -1.744917284368515
    H                3.382166068403272     0.938259621077694    -0.939093284368515

}
e, wfn = energy('scf', return_wfn=True)
gdma(wfn)
dmavals = variable('DMA DISTRIBUTED MULTIPOLES')
charges = np.array(dmavals)
print(charges)
np.save('SSI-063GLN-136TRP-1-dimer.npy', np.array(charges))--------------------------------------------------------------------------

*** tstart() called on ds3
*** at Tue Apr 28 11:00:46 2020

   => Loading Basis Set <=

    Name: CC-PVDZ
    Role: ORBITAL
    Keyword: BASIS
    atoms 1-3, 13-21  entry C          line   138 file /theoryfs2/ds/metcalf/miniconda2/envs/tf2gpu/share/psi4/basis/cc-pvdz.gbs 
    atoms 4           entry O          line   198 file /theoryfs2/ds/metcalf/miniconda2/envs/tf2gpu/share/psi4/basis/cc-pvdz.gbs 
    atoms 5, 22       entry N          line   168 file /theoryfs2/ds/metcalf/miniconda2/envs/tf2gpu/share/psi4/basis/cc-pvdz.gbs 
    atoms 6-12, 23-31 entry H          line    22 file /theoryfs2/ds/metcalf/miniconda2/envs/tf2gpu/share/psi4/basis/cc-pvdz.gbs 


         ---------------------------------------------------------
                                   SCF
               by Justin Turney, Rob Parrish, Andy Simmonett
                          and Daniel G. A. Smith
                              RHF Reference
                        1 Threads,    500 MiB Core
         ---------------------------------------------------------

  ==> Geometry <==

    Molecular point group: c1
    Full point group: C1

    Geometry (in Angstrom), charge = 0, multiplicity = 1:

       Center              X                  Y                   Z               Mass       
    ------------   -----------------  -----------------  -----------------  -----------------
         C           -0.765913931597    -2.979489378922    -0.346917284369    12.000000000000
         C            0.115086068403    -2.786489378922    -1.563917284369    12.000000000000
         C           -0.030913931597    -3.497489378922     0.874082715631    12.000000000000
         O            1.212086068403    -3.488489378922     0.962082715631    15.994914619570
         N           -0.805913931597    -3.945489378922     1.849082715631    14.003074004430
         H           -1.225913931597    -2.032489378922    -0.076917284369     1.007825032230
         H           -1.552913931597    -3.689489378922    -0.589917284369     1.007825032230
         H            0.564086068403    -3.741489378922    -1.842917284369     1.007825032230
         H            0.912086068403    -2.087489378922    -1.322917284369     1.007825032230
         H           -0.390913931597    -4.257489378922     2.708082715631     1.007825032230
         H           -1.813913931597    -3.886489378922     1.729082715631     1.007825032230
         H           -0.465103931597    -2.388873378922    -2.409662284369     1.007825032230
         C            2.436086068403     0.478510621078    -1.260917284369    12.000000000000
         C            0.724086068403     0.008510621078     0.560082715631    12.000000000000
         C            1.225086068403     0.783510621078    -0.418917284369    12.000000000000
         C           -0.664913931597     1.736510621078     0.453082715631    12.000000000000
         C            0.356086068403     1.910510621078    -0.516917284369    12.000000000000
         C           -1.665913931597     2.668510621078     0.652082715631    12.000000000000
         C            0.342086068403     3.041510621078    -1.331917284369    12.000000000000
         C           -1.652913931597     3.798510621078    -0.180917284369    12.000000000000
         C           -0.638913931597     3.990510621078    -1.119917284369    12.000000000000
         N           -0.392913931597     0.563510621078     1.085082715631    14.003074004430
         H            1.163086068403    -0.925489378922     0.892082715631     1.007825032230
         H           -0.872913931597     0.165510621078     1.898082715631     1.007825032230
         H            2.202086068403     0.767510621078    -2.279917284369     1.007825032230
         H            2.587086068403    -0.600489378922    -1.263917284369     1.007825032230
         H           -2.430913931597     2.518510621078     1.400082715631     1.007825032230
         H            1.089086068403     3.181510621078    -2.098917284369     1.007825032230
         H           -2.428913931597     4.545510621078    -0.074917284369     1.007825032230
         H           -0.666913931597     4.863510621078    -1.744917284369     1.007825032230
         H            3.382166068403     0.938259621078    -0.939093284369     1.007825032230

  Running in c1 symmetry.

  Rotational constants: A =      0.03761  B =      0.00977  C =      0.00872 [cm^-1]
  Rotational constants: A =   1127.41449  B =    292.92550  C =    261.42421 [MHz]
  Nuclear repulsion =  945.283947077540915

  Charge       = 0
  Multiplicity = 1
  Electrons    = 110
  Nalpha       = 55
  Nbeta        = 55

  ==> Algorithm <==

  SCF Algorithm Type is PK.
  DIIS enabled.
  MOM disabled.
  Fractional occupation disabled.
  Guess Type is SAD.
  Energy threshold   = 1.00e-06
  Density threshold  = 1.00e-10
  Integral threshold = 0.00e+00

  ==> Primary Basis <==

  Basis Set: CC-PVDZ
    Blend: CC-PVDZ
    Number of shells: 138
    Number of basis function: 290
    Number of Cartesian functions: 305
    Spherical Harmonics?: true
    Max angular momentum: 2

  ==> Pre-Iterations <==

   -------------------------------------------------------
    Irrep   Nso     Nmo     Nalpha   Nbeta   Ndocc  Nsocc
   -------------------------------------------------------
     A        290     290       0       0       0       0
   -------------------------------------------------------
    Total     290     290      55      55      55       0
   -------------------------------------------------------

  ==> Integral Setup <==

  Using integral reordering PK algorithm.
  Sizing the integral batches needed.
  Building batch lookup table.
   Calculation information:
      Number of atoms:                  31
      Number of AO shells:             138
      Number of primitives:            410
      Number of atomic orbitals:       305
      Number of basis functions:       290

      Integral cutoff                 1.00e-12
      Number of threads:                 1

	Batch   1 pq = [       0,    9405] index = [             0,44231715] size =     44231715
	Batch   2 pq = [    9405,   13301] index = [      44231715,88464951] size =     44233236
	Batch   3 pq = [   13301,   16290] index = [      88464951,132690195] size =     44225244
	Batch   4 pq = [   16290,   18810] index = [     132690195,176917455] size =     44227260
	Batch   5 pq = [   18810,   21030] index = [     176917455,221140965] size =     44223510
	Batch   6 pq = [   21030,   23037] index = [     221140965,265363203] size =     44222238
	Batch   7 pq = [   23037,   24883] index = [     265363203,309594286] size =     44231083
	Batch   8 pq = [   24883,   26601] index = [     309594286,353819901] size =     44225615
	Batch   9 pq = [   26601,   28214] index = [     353819901,398029005] size =     44209104
	Batch  10 pq = [   28214,   29740] index = [     398029005,442248670] size =     44219665
	Batch  11 pq = [   29740,   31191] index = [     442248670,486454836] size =     44206166
	Batch  12 pq = [   31191,   32578] index = [     486454836,530679331] size =     44224495
	Batch  13 pq = [   32578,   33908] index = [     530679331,574893186] size =     44213855
	Batch  14 pq = [   33908,   35188] index = [     574893186,619115266] size =     44222080
	Batch  15 pq = [   35188,   36423] index = [     619115266,663335676] size =     44220410
	Batch  16 pq = [   36423,   37617] index = [     663335676,707538153] size =     44202477
	Batch  17 pq = [   37617,   38775] index = [     707538153,751769700] size =     44231547
	Batch  18 pq = [   38775,   39899] index = [     751769700,795985050] size =     44215350
	Batch  19 pq = [   39899,   40992] index = [     795985050,840192528] size =     44207478
	Batch  20 pq = [   40992,   42057] index = [     840192528,884416653] size =     44224125
	Batch  21 pq = [   42057,   42195] index = [     884416653,890230110] size =      5813457
  Task number: 81
  Buffer size: 11059200
  Buffer per thread: 2
  We computed 46118860 shell quartets total.
  Whereas there are 45998436 unique shell quartets.
     0.26 percent of shell quartets recomputed by reordering.

  ==> DiskJK: Disk-Based J/K Matrices <==

    J tasked:                  Yes
    K tasked:                  Yes
    wK tasked:                  No
    Memory [MiB]:              375
    Schwarz Cutoff:          1E-12

    OpenMP threads:              1

  Minimum eigenvalue in the overlap matrix is 2.3422307231E-04.
  Using Symmetric Orthogonalization.

  SCF Guess: Superposition of Atomic Densities via on-the-fly atomic UHF.

  ==> Iterations <==

                        Total Energy        Delta E     RMS |[F,P]|

   @RHF iter SAD:  -646.80850850845150   -6.46809e+02   0.00000e+00 
   @RHF iter   1:  -647.18208564826045   -3.73577e-01   2.71957e-03 DIIS
   @RHF iter   2:  -647.47984092788329   -2.97755e-01   1.46217e-03 DIIS
   @RHF iter   3:  -647.55550817076460   -7.56672e-02   3.60226e-04 DIIS
   @RHF iter   4:  -647.56175439949061   -6.24623e-03   1.38145e-04 DIIS
   @RHF iter   5:  -647.56272279714756   -9.68398e-04   2.08727e-05 DIIS
   @RHF iter   6:  -647.56277305634922   -5.02592e-05   9.68508e-06 DIIS
   @RHF iter   7:  -647.56278216774967   -9.11140e-06   4.03951e-06 DIIS
   @RHF iter   8:  -647.56278435863533   -2.19089e-06   1.50722e-06 DIIS
   @RHF iter   9:  -647.56278472158829   -3.62953e-07   6.60410e-07 DIIS
   @RHF iter  10:  -647.56278478465151   -6.30632e-08   2.78661e-07 DIIS
   @RHF iter  11:  -647.56278480126468   -1.66132e-08   1.14515e-07 DIIS
   @RHF iter  12:  -647.56278480415563   -2.89094e-09   5.68894e-08 DIIS
   @RHF iter  13:  -647.56278480474145   -5.85828e-10   2.15639e-08 DIIS
   @RHF iter  14:  -647.56278480484923   -1.07775e-10   9.01812e-09 DIIS
   @RHF iter  15:  -647.56278480484934   -1.13687e-13   3.02295e-09 DIIS
   @RHF iter  16:  -647.56278480485980   -1.04592e-11   1.19849e-09 DIIS
   @RHF iter  17:  -647.56278480485707    2.72848e-12   6.04574e-10 DIIS
   @RHF iter  18:  -647.56278480485958   -2.50111e-12   2.38421e-10 DIIS
   @RHF iter  19:  -647.56278480485912    4.54747e-13   1.15006e-10 DIIS
   @RHF iter  20:  -647.56278480485651    2.61480e-12   5.38158e-11 DIIS
  Energy and wave function converged.


  ==> Post-Iterations <==

    Orbital Energies [Eh]
    ---------------------

    Doubly Occupied:                                                      

       1A    -20.514781     2A    -15.600137     3A    -15.599280  
       4A    -11.354375     5A    -11.259886     6A    -11.250790  
       7A    -11.243215     8A    -11.230120     9A    -11.227478  
      10A    -11.224840    11A    -11.219993    12A    -11.218748  
      13A    -11.216112    14A    -11.215838    15A    -11.206533  
      16A     -1.368351    17A     -1.303328    18A     -1.226938  
      19A     -1.127857    20A     -1.070594    21A     -1.053779  
      22A     -0.998022    23A     -0.984138    24A     -0.926570  
      25A     -0.893955    26A     -0.840372    27A     -0.801658  
      28A     -0.789639    29A     -0.751360    30A     -0.731855  
      31A     -0.718087    32A     -0.670983    33A     -0.663011  
      34A     -0.646208    35A     -0.634262    36A     -0.601319  
      37A     -0.593820    38A     -0.590419    39A     -0.587949  
      40A     -0.563042    41A     -0.554133    42A     -0.547354  
      43A     -0.531494    44A     -0.525158    45A     -0.522371  
      46A     -0.507100    47A     -0.493499    48A     -0.488666  
      49A     -0.469887    50A     -0.460519    51A     -0.417360  
      52A     -0.412287    53A     -0.371403    54A     -0.295265  
      55A     -0.269904  

    Virtual:                                                              

      56A      0.128352    57A      0.153751    58A      0.173633  
      59A      0.183275    60A      0.187734    61A      0.194613  
      62A      0.200733    63A      0.213302    64A      0.224999  
      65A      0.232932    66A      0.237657    67A      0.253006  
      68A      0.259430    69A      0.266277    70A      0.272804  
      71A      0.284179    72A      0.293405    73A      0.302791  
      74A      0.314857    75A      0.363530    76A      0.370061  
      77A      0.386890    78A      0.406525    79A      0.413183  
      80A      0.419833    81A      0.426321    82A      0.454157  
      83A      0.478692    84A      0.484840    85A      0.494826  
      86A      0.503768    87A      0.514674    88A      0.540008  
      89A      0.592233    90A      0.608396    91A      0.612870  
      92A      0.624963    93A      0.639063    94A      0.652651  
      95A      0.662342    96A      0.691858    97A      0.703799  
      98A      0.710931    99A      0.714821   100A      0.721312  
     101A      0.725808   102A      0.731810   103A      0.739558  
     104A      0.744288   105A      0.747341   106A      0.759227  
     107A      0.762804   108A      0.766340   109A      0.783914  
     110A      0.797517   111A      0.804707   112A      0.812938  
     113A      0.826790   114A      0.831154   115A      0.838080  
     116A      0.847592   117A      0.864373   118A      0.872264  
     119A      0.882036   120A      0.883496   121A      0.894249  
     122A      0.897085   123A      0.907027   124A      0.913040  
     125A      0.921107   126A      0.926530   127A      0.936663  
     128A      0.944369   129A      0.952165   130A      0.965224  
     131A      0.978101   132A      0.980788   133A      0.990508  
     134A      0.998691   135A      1.010558   136A      1.029290  
     137A      1.039667   138A      1.061811   139A      1.065006  
     140A      1.094773   141A      1.096615   142A      1.110020  
     143A      1.116082   144A      1.141990   145A      1.143847  
     146A      1.146444   147A      1.160763   148A      1.169496  
     149A      1.178061   150A      1.220442   151A      1.233569  
     152A      1.240529   153A      1.265463   154A      1.270190  
     155A      1.282314   156A      1.293191   157A      1.301132  
     158A      1.315297   159A      1.320621   160A      1.331614  
     161A      1.341955   162A      1.360485   163A      1.376260  
     164A      1.392075   165A      1.401168   166A      1.416248  
     167A      1.425705   168A      1.443477   169A      1.477597  
     170A      1.491058   171A      1.510978   172A      1.544292  
     173A      1.561669   174A      1.577541   175A      1.607449  
     176A      1.613906   177A      1.637440   178A      1.650937  
     179A      1.661990   180A      1.672515   181A      1.691554  
     182A      1.705432   183A      1.709492   184A      1.749505  
     185A      1.755593   186A      1.762578   187A      1.764026  
     188A      1.778686   189A      1.791791   190A      1.803566  
     191A      1.814159   192A      1.844914   193A      1.859434  
     194A      1.873680   195A      1.877039   196A      1.879717  
     197A      1.887579   198A      1.896448   199A      1.905289  
     200A      1.928164   201A      1.931124   202A      1.932909  
     203A      1.937787   204A      1.948869   205A      1.953092  
     206A      1.957807   207A      1.961667   208A      1.981438  
     209A      1.988961   210A      1.999019   211A      2.012476  
     212A      2.013591   213A      2.023860   214A      2.035094  
     215A      2.040642   216A      2.058331   217A      2.079084  
     218A      2.085458   219A      2.089328   220A      2.110718  
     221A      2.114365   222A      2.125261   223A      2.131659  
     224A      2.147207   225A      2.156581   226A      2.164773  
     227A      2.175957   228A      2.184533   229A      2.187092  
     230A      2.228724   231A      2.250810   232A      2.265599  
     233A      2.294908   234A      2.306102   235A      2.323833  
     236A      2.328480   237A      2.339625   238A      2.349473  
     239A      2.364846   240A      2.368656   241A      2.407859  
     242A      2.438380   243A      2.453062   244A      2.465022  
     245A      2.472004   246A      2.487166   247A      2.535803  
     248A      2.545665   249A      2.552956   250A      2.575473  
     251A      2.600665   252A      2.612346   253A      2.619460  
     254A      2.622702   255A      2.646900   256A      2.674327  
     257A      2.701026   258A      2.725937   259A      2.743147  
     260A      2.781469   261A      2.788250   262A      2.799322  
     263A      2.802607   264A      2.811369   265A      2.855445  
     266A      2.869428   267A      2.887991   268A      2.895659  
     269A      2.905096   270A      2.917515   271A      2.940679  
     272A      2.970028   273A      2.990183   274A      3.021556  
     275A      3.033849   276A      3.079705   277A      3.088059  
     278A      3.097802   279A      3.142826   280A      3.146678  
     281A      3.221231   282A      3.298393   283A      3.326067  
     284A      3.404528   285A      3.499979   286A      3.510102  
     287A      3.764163   288A      3.836330   289A      3.886150  
     290A      3.962837  

    Final Occupation by Irrep:
              A 
    DOCC [    55 ]

  @RHF Final Energy:  -647.56278480485651

   => Energetics <=

    Nuclear Repulsion Energy =            945.2839470775409154
    One-Electron Energy =               -2756.5213876960078778
    Two-Electron Energy =                1163.6746558136103431
    Total Energy =                       -647.5627848048566193

Computation Completed


Properties will be evaluated at   0.000000,   0.000000,   0.000000 [a0]

Properties computed using the SCF density matrix

  Nuclear Dipole Moment: [e a0]
     X:     0.0574      Y:    -6.2219      Z:    -5.6443

  Electronic Dipole Moment: [e a0]
     X:    -1.7361      Y:     5.4128      Z:     6.3802

  Dipole Moment: [e a0]
     X:    -1.6787      Y:    -0.8090      Z:     0.7359     Total:     2.0035

  Dipole Moment: [D]
     X:    -4.2669      Y:    -2.0563      Z:     1.8705     Total:     5.0925


*** tstop() called on ds3 at Tue Apr 28 11:11:31 2020
Module time:
	user time   =     395.98 seconds =       6.60 minutes
	system time =     146.26 seconds =       2.44 minutes
	total time  =        645 seconds =      10.75 minutes
Total time:
	user time   =     395.98 seconds =       6.60 minutes
	system time =     146.26 seconds =       2.44 minutes
	total time  =        645 seconds =      10.75 minutes
                                     G D M A

                                 by Anthony Stone

                           version 2.2.06, 22 June 2011

               Distributed Multipoles from Gaussian wavefunctions


Starting at 11:11:31 on 28 Apr 2020 


Using SCF density matrix from file ./SSI/SSI-063GLN-136TRP-1-dimer.test.26205.fchk


                         Distributed Multipole Analysis

Standard DMA

Positions and radii in angstrom
Multipole moments in atomic units, ea_0^k for rank k

C          x = -0.765914  y = -2.979489  z = -0.346917 angstrom
           Maximum rank =  0   Radius =  0.650 angstrom
                   Q00  =  -0.180759

C          x =  0.115086  y = -2.786489  z = -1.563917 angstrom
           Maximum rank =  0   Radius =  0.650 angstrom
                   Q00  =  -0.197109

C          x = -0.030914  y = -3.497489  z =  0.874083 angstrom
           Maximum rank =  0   Radius =  0.650 angstrom
                   Q00  =   0.860299

O          x =  1.212086  y = -3.488489  z =  0.962083 angstrom
           Maximum rank =  0   Radius =  0.650 angstrom
                   Q00  =  -0.825337

N          x = -0.805914  y = -3.945489  z =  1.849083 angstrom
           Maximum rank =  0   Radius =  0.650 angstrom
                   Q00  =  -0.549660

H          x = -1.225914  y = -2.032489  z = -0.076917 angstrom
           Maximum rank =  0   Radius =  0.325 angstrom
                   Q00  =   0.098831

H          x = -1.552914  y = -3.689489  z = -0.589917 angstrom
           Maximum rank =  0   Radius =  0.325 angstrom
                   Q00  =   0.072240

H          x =  0.564086  y = -3.741489  z = -1.842917 angstrom
           Maximum rank =  0   Radius =  0.325 angstrom
                   Q00  =   0.090355

H          x =  0.912086  y = -2.087489  z = -1.322917 angstrom
           Maximum rank =  0   Radius =  0.325 angstrom
                   Q00  =   0.113744

H          x = -0.390914  y = -4.257489  z =  2.708083 angstrom
           Maximum rank =  0   Radius =  0.325 angstrom
                   Q00  =   0.222815

H          x = -1.813914  y = -3.886489  z =  1.729083 angstrom
           Maximum rank =  0   Radius =  0.325 angstrom
                   Q00  =   0.207919

H          x = -0.465104  y = -2.388873  z = -2.409662 angstrom
           Maximum rank =  0   Radius =  0.325 angstrom
                   Q00  =   0.086454

C          x =  2.436086  y =  0.478511  z = -1.260917 angstrom
           Maximum rank =  0   Radius =  0.650 angstrom
                   Q00  =  -0.215928

C          x =  0.724086  y =  0.008511  z =  0.560083 angstrom
           Maximum rank =  0   Radius =  0.650 angstrom
                   Q00  =   0.078383

C          x =  1.225086  y =  0.783511  z = -0.418917 angstrom
           Maximum rank =  0   Radius =  0.650 angstrom
                   Q00  =  -0.133853

C          x = -0.664914  y =  1.736511  z =  0.453083 angstrom
           Maximum rank =  0   Radius =  0.650 angstrom
                   Q00  =   0.251329

C          x =  0.356086  y =  1.910511  z = -0.516917 angstrom
           Maximum rank =  0   Radius =  0.650 angstrom
                   Q00  =  -0.044695

C          x = -1.665914  y =  2.668511  z =  0.652083 angstrom
           Maximum rank =  0   Radius =  0.650 angstrom
                   Q00  =  -0.124707

C          x =  0.342086  y =  3.041511  z = -1.331917 angstrom
           Maximum rank =  0   Radius =  0.650 angstrom
                   Q00  =  -0.099940

C          x = -1.652914  y =  3.798511  z = -0.180917 angstrom
           Maximum rank =  0   Radius =  0.650 angstrom
                   Q00  =  -0.076147

C          x = -0.638914  y =  3.990511  z = -1.119917 angstrom
           Maximum rank =  0   Radius =  0.650 angstrom
                   Q00  =  -0.046879

N          x = -0.392914  y =  0.563511  z =  1.085083 angstrom
           Maximum rank =  0   Radius =  0.650 angstrom
                   Q00  =  -0.480093

H          x =  1.163086  y = -0.925489  z =  0.892083 angstrom
           Maximum rank =  0   Radius =  0.325 angstrom
                   Q00  =   0.107577

H          x = -0.872914  y =  0.165511  z =  1.898083 angstrom
           Maximum rank =  0   Radius =  0.325 angstrom
                   Q00  =   0.213131

H          x =  2.202086  y =  0.767511  z = -2.279917 angstrom
           Maximum rank =  0   Radius =  0.325 angstrom
                   Q00  =   0.098441

H          x =  2.587086  y = -0.600489  z = -1.263917 angstrom
           Maximum rank =  0   Radius =  0.325 angstrom
                   Q00  =   0.107293

H          x = -2.430914  y =  2.518511  z =  1.400083 angstrom
           Maximum rank =  0   Radius =  0.325 angstrom
                   Q00  =   0.073114

H          x =  1.089086  y =  3.181511  z = -2.098917 angstrom
           Maximum rank =  0   Radius =  0.325 angstrom
                   Q00  =   0.070016

H          x = -2.428914  y =  4.545511  z = -0.074917 angstrom
           Maximum rank =  0   Radius =  0.325 angstrom
                   Q00  =   0.063410

H          x = -0.666914  y =  4.863511  z = -1.744917 angstrom
           Maximum rank =  0   Radius =  0.325 angstrom
                   Q00  =   0.057131

H          x =  3.382166  y =  0.938260  z = -0.939093 angstrom
           Maximum rank =  0   Radius =  0.325 angstrom
                   Q00  =   0.102625

Total multipoles referred to origin at
           x =   0.000000,  y =    0.000000,  z =    0.000000 angstrom
                   Q00  =  -0.000000

Finished at 11:11:31 on 28 Apr 2020 

  DMA results are available in the Python driver through the
	  variable('DMA DISTRIBUTED MULTIPOLES')
  and
	  variable('DMA TOTAL MULTIPOLES')
  commands.


    Psi4 stopped on: Tuesday, 28 April 2020 11:11AM
    Psi4 wall time for execution: 0:10:44.93

*** Psi4 exiting successfully. Buy a developer a beer!
