
    -----------------------------------------------------------------------
          Psi4: An Open-Source Ab Initio Electronic Structure Package
                               Psi4 1.3.2 release

                         Git: Rev {HEAD} ecbda83 


    R. M. Parrish, L. A. Burns, D. G. A. Smith, A. C. Simmonett,
    A. E. DePrince III, E. G. Hohenstein, U. Bozkaya, A. Yu. Sokolov,
    R. Di Remigio, R. M. Richard, J. F. Gonthier, A. M. James,
    H. R. McAlexander, A. Kumar, M. Saitow, X. Wang, B. P. Pritchard,
    P. Verma, H. F. Schaefer III, K. Patkowski, R. A. King, E. F. Valeev,
    F. A. Evangelista, J. M. Turney, T. D. Crawford, and C. D. Sherrill,
    J. Chem. Theory Comput. 13(7) pp 3185--3197 (2017).
    (doi: 10.1021/acs.jctc.7b00174)


                         Additional Contributions by
    P. Kraus, H. Kruse, M. H. Lechner, M. C. Schieber, R. A. Shaw,
    A. Alenaizan, R. Galvelis, Z. L. Glick, S. Lehtola, and J. P. Misiewicz

    -----------------------------------------------------------------------


    Psi4 started on: Tuesday, 28 April 2020 04:40PM

    Process ID: 16944
    Host:       ds3
    PSIDATADIR: /theoryfs2/ds/metcalf/miniconda2/envs/tf2gpu/share/psi4
    Memory:     500.0 MiB
    Threads:    1
    
  ==> Input File <==

--------------------------------------------------------------------------
import numpy as np
set {scf_type pk
basis cc-pvdz
d_convergence 10
gdma_switch   0
gdma_limit    0
gdma_origin   [ 0.0,  0.0,  0.0 ]
}
molecule test {
    units Angstrom
    0 1
    --
    0 1
    C                1.552256864550736     0.878433702006601     0.793024370899895
    C                1.305256864550737     1.872433702006601     1.990024370899895
    H                1.291256864550737    -0.133566297993399     1.107024370899895
    H                0.928256864550737     1.154433702006600    -0.058975629100105
    H                2.594256864550737     0.857433702006601     0.478024370899895
    H                1.331256864550737     2.887433702006601     1.589024370899895
    H                2.119811864550737     1.775053702006601     2.722844370899895
    H                0.324631864550737     1.737293702006601     2.469724370899895
    C               -0.708743135449263    -1.203566297993399    -1.225975629100105
    C               -2.152743135449263    -1.548566297993399    -1.555975629100106
    H               -0.286743135449263    -0.588566297993399    -2.019975629100106
    H               -0.655743135449263    -0.665566297993399    -0.290975629100105
    H               -0.119743135449263    -2.115566297993399    -1.125975629100106
    H               -2.693743135449263    -0.628566297993399    -1.774975629100106
    H               -2.176956135449263    -2.223686297993399    -2.424095629100105
    H               -2.609242135449263    -2.041066297993399    -0.684735629100106

}
e, wfn = energy('scf', return_wfn=True)
gdma(wfn)
dmavals = variable('DMA DISTRIBUTED MULTIPOLES')
charges = np.array(dmavals)
print(charges)
np.save('SSI-088ILE-135LEU-1-dimer.npy', np.array(charges))--------------------------------------------------------------------------

*** tstart() called on ds3
*** at Tue Apr 28 16:40:09 2020

   => Loading Basis Set <=

    Name: CC-PVDZ
    Role: ORBITAL
    Keyword: BASIS
    atoms 1-2, 9-10  entry C          line   138 file /theoryfs2/ds/metcalf/miniconda2/envs/tf2gpu/share/psi4/basis/cc-pvdz.gbs 
    atoms 3-8, 11-16 entry H          line    22 file /theoryfs2/ds/metcalf/miniconda2/envs/tf2gpu/share/psi4/basis/cc-pvdz.gbs 


         ---------------------------------------------------------
                                   SCF
               by Justin Turney, Rob Parrish, Andy Simmonett
                          and Daniel G. A. Smith
                              RHF Reference
                        1 Threads,    500 MiB Core
         ---------------------------------------------------------

  ==> Geometry <==

    Molecular point group: c1
    Full point group: C1

    Geometry (in Angstrom), charge = 0, multiplicity = 1:

       Center              X                  Y                   Z               Mass       
    ------------   -----------------  -----------------  -----------------  -----------------
         C            1.552256864551     0.878433702007     0.793024370900    12.000000000000
         C            1.305256864551     1.872433702007     1.990024370900    12.000000000000
         H            1.291256864551    -0.133566297993     1.107024370900     1.007825032230
         H            0.928256864551     1.154433702007    -0.058975629100     1.007825032230
         H            2.594256864551     0.857433702007     0.478024370900     1.007825032230
         H            1.331256864551     2.887433702007     1.589024370900     1.007825032230
         H            2.119811864551     1.775053702007     2.722844370900     1.007825032230
         H            0.324631864551     1.737293702007     2.469724370900     1.007825032230
         C           -0.708743135449    -1.203566297993    -1.225975629100    12.000000000000
         C           -2.152743135449    -1.548566297993    -1.555975629100    12.000000000000
         H           -0.286743135449    -0.588566297993    -2.019975629100     1.007825032230
         H           -0.655743135449    -0.665566297993    -0.290975629100     1.007825032230
         H           -0.119743135449    -2.115566297993    -1.125975629100     1.007825032230
         H           -2.693743135449    -0.628566297993    -1.774975629100     1.007825032230
         H           -2.176956135449    -2.223686297993    -2.424095629100     1.007825032230
         H           -2.609242135449    -2.041066297993    -0.684735629100     1.007825032230

  Running in c1 symmetry.

  Rotational constants: A =      0.57924  B =      0.04351  C =      0.04175 [cm^-1]
  Rotational constants: A =  17365.24589  B =   1304.40031  C =   1251.58709 [MHz]
  Nuclear repulsion =  120.308112494140360

  Charge       = 0
  Multiplicity = 1
  Electrons    = 36
  Nalpha       = 18
  Nbeta        = 18

  ==> Algorithm <==

  SCF Algorithm Type is PK.
  DIIS enabled.
  MOM disabled.
  Fractional occupation disabled.
  Guess Type is SAD.
  Energy threshold   = 1.00e-06
  Density threshold  = 1.00e-10
  Integral threshold = 0.00e+00

  ==> Primary Basis <==

  Basis Set: CC-PVDZ
    Blend: CC-PVDZ
    Number of shells: 60
    Number of basis function: 116
    Number of Cartesian functions: 120
    Spherical Harmonics?: true
    Max angular momentum: 2

  ==> Pre-Iterations <==

   -------------------------------------------------------
    Irrep   Nso     Nmo     Nalpha   Nbeta   Ndocc  Nsocc
   -------------------------------------------------------
     A        116     116       0       0       0       0
   -------------------------------------------------------
    Total     116     116      18      18      18       0
   -------------------------------------------------------

  ==> Integral Setup <==

  Using integral reordering PK algorithm.
  Sizing the integral batches needed.
  Building batch lookup table.
   Calculation information:
      Number of atoms:                  16
      Number of AO shells:              60
      Number of primitives:            148
      Number of atomic orbitals:       120
      Number of basis functions:       116

      Integral cutoff                 1.00e-12
      Number of threads:                 1

	Batch   1 pq = [       0,    6786] index = [             0,23028291] size =     23028291
  Task number: 3
  Buffer size: 11059200
  Buffer per thread: 2
  We computed 1356797 shell quartets total.
  Whereas there are 1675365 unique shell quartets.

  ==> DiskJK: Disk-Based J/K Matrices <==

    J tasked:                  Yes
    K tasked:                  Yes
    wK tasked:                  No
    Memory [MiB]:              375
    Schwarz Cutoff:          1E-12

    OpenMP threads:              1

  Minimum eigenvalue in the overlap matrix is 6.8355746149E-03.
  Using Symmetric Orthogonalization.

  SCF Guess: Superposition of Atomic Densities via on-the-fly atomic UHF.

  ==> Iterations <==

                        Total Energy        Delta E     RMS |[F,P]|

   @RHF iter SAD:  -157.29544237484811   -1.57295e+02   0.00000e+00 
   @RHF iter   1:  -158.30840512716577   -1.01296e+00   4.15377e-03 DIIS
   @RHF iter   2:  -158.43923989903053   -1.30835e-01   1.75195e-03 DIIS
   @RHF iter   3:  -158.46162154231715   -2.23816e-02   3.47198e-04 DIIS
   @RHF iter   4:  -158.46342901320182   -1.80747e-03   3.94449e-05 DIIS
   @RHF iter   5:  -158.46345320486938   -2.41917e-05   7.44438e-06 DIIS
   @RHF iter   6:  -158.46345394883565   -7.43966e-07   1.66768e-06 DIIS
   @RHF iter   7:  -158.46345397435104   -2.55154e-08   3.21514e-07 DIIS
   @RHF iter   8:  -158.46345397550931   -1.15827e-09   4.14899e-08 DIIS
   @RHF iter   9:  -158.46345397553725   -2.79385e-11   9.79106e-09 DIIS
   @RHF iter  10:  -158.46345397553841   -1.16529e-12   2.85398e-09 DIIS
   @RHF iter  11:  -158.46345397553839    2.84217e-14   5.34491e-10 DIIS
   @RHF iter  12:  -158.46345397553870   -3.12639e-13   8.09389e-11 DIIS
  Energy and wave function converged.


  ==> Post-Iterations <==

    Orbital Energies [Eh]
    ---------------------

    Doubly Occupied:                                                      

       1A    -11.223235     2A    -11.219895     3A    -11.217812  
       4A    -11.212942     5A     -1.020284     6A     -1.006198  
       7A     -0.843195     8A     -0.833347     9A     -0.601764  
      10A     -0.599748    11A     -0.592444    12A     -0.588307  
      13A     -0.502136    14A     -0.498913    15A     -0.490394  
      16A     -0.487221    17A     -0.483014    18A     -0.476197  

    Virtual:                                                              

      19A      0.176067    20A      0.196348    21A      0.222214  
      22A      0.234884    23A      0.247394    24A      0.253103  
      25A      0.266172    26A      0.278774    27A      0.285805  
      28A      0.290134    29A      0.307421    30A      0.317940  
      31A      0.368619    32A      0.409714    33A      0.571997  
      34A      0.590529    35A      0.599646    36A      0.604455  
      37A      0.606701    38A      0.657226    39A      0.674120  
      40A      0.677355    41A      0.699881    42A      0.800717  
      43A      0.812878    44A      0.878571    45A      0.889272  
      46A      0.889710    47A      0.892654    48A      0.898961  
      49A      0.901311    50A      0.906798    51A      0.914955  
      52A      0.919582    53A      0.920645    54A      0.935725  
      55A      0.977510    56A      0.986695    57A      1.109016  
      58A      1.125817    59A      1.141301    60A      1.169745  
      61A      1.217774    62A      1.250687    63A      1.445359  
      64A      1.472717    65A      1.487843    66A      1.489291  
      67A      1.563450    68A      1.597882    69A      1.677193  
      70A      1.683878    71A      1.690845    72A      1.703996  
      73A      1.851179    74A      1.857414    75A      1.868319  
      76A      1.875164    77A      1.891596    78A      1.905177  
      79A      1.922083    80A      1.930468    81A      1.934400  
      82A      1.940636    83A      1.948697    84A      1.953935  
      85A      1.958225    86A      1.964545    87A      1.989896  
      88A      2.031121    89A      2.086534    90A      2.118027  
      91A      2.126339    92A      2.150685    93A      2.284915  
      94A      2.305694    95A      2.312415    96A      2.323538  
      97A      2.413883    98A      2.446370    99A      2.460179  
     100A      2.481997   101A      2.551491   102A      2.574641  
     103A      2.581420   104A      2.584949   105A      2.756988  
     106A      2.763752   107A      2.781539   108A      2.797531  
     109A      2.825075   110A      2.841925   111A      2.854130  
     112A      2.861722   113A      2.927030   114A      2.938065  
     115A      2.962501   116A      2.983377  

    Final Occupation by Irrep:
              A 
    DOCC [    18 ]

  @RHF Final Energy:  -158.46345397553870

   => Energetics <=

    Nuclear Repulsion Energy =            120.3081124941403601
    One-Electron Energy =                -449.7490371337636930
    Two-Electron Energy =                 170.9774706640846489
    Total Energy =                       -158.4634539755386982

Computation Completed


Properties will be evaluated at   0.000000,   0.000000,   0.000000 [a0]

Properties computed using the SCF density matrix

  Nuclear Dipole Moment: [e a0]
     X:     0.0443      Y:     0.0141      Z:    -0.0123

  Electronic Dipole Moment: [e a0]
     X:    -0.0258      Y:    -0.0031      Z:     0.0129

  Dipole Moment: [e a0]
     X:     0.0186      Y:     0.0110      Z:     0.0006     Total:     0.0216

  Dipole Moment: [D]
     X:     0.0472      Y:     0.0280      Z:     0.0015     Total:     0.0549


*** tstop() called on ds3 at Tue Apr 28 16:40:19 2020
Module time:
	user time   =       7.13 seconds =       0.12 minutes
	system time =       2.68 seconds =       0.04 minutes
	total time  =         10 seconds =       0.17 minutes
Total time:
	user time   =       7.13 seconds =       0.12 minutes
	system time =       2.68 seconds =       0.04 minutes
	total time  =         10 seconds =       0.17 minutes
                                     G D M A

                                 by Anthony Stone

                           version 2.2.06, 22 June 2011

               Distributed Multipoles from Gaussian wavefunctions


Starting at 16:40:19 on 28 Apr 2020 


Using SCF density matrix from file ./SSI/SSI-088ILE-135LEU-1-dimer.test.16944.fchk


                         Distributed Multipole Analysis

Standard DMA

Positions and radii in angstrom
Multipole moments in atomic units, ea_0^k for rank k

C          x =  1.552257  y =  0.878434  z =  0.793024 angstrom
           Maximum rank =  0   Radius =  0.650 angstrom
                   Q00  =  -0.249275

C          x =  1.305257  y =  1.872434  z =  1.990024 angstrom
           Maximum rank =  0   Radius =  0.650 angstrom
                   Q00  =  -0.248383

H          x =  1.291257  y = -0.133566  z =  1.107024 angstrom
           Maximum rank =  0   Radius =  0.325 angstrom
                   Q00  =   0.079658

H          x =  0.928257  y =  1.154434  z = -0.058976 angstrom
           Maximum rank =  0   Radius =  0.325 angstrom
                   Q00  =   0.083484

H          x =  2.594257  y =  0.857434  z =  0.478024 angstrom
           Maximum rank =  0   Radius =  0.325 angstrom
                   Q00  =   0.086626

H          x =  1.331257  y =  2.887434  z =  1.589024 angstrom
           Maximum rank =  0   Radius =  0.325 angstrom
                   Q00  =   0.079255

H          x =  2.119812  y =  1.775054  z =  2.722844 angstrom
           Maximum rank =  0   Radius =  0.325 angstrom
                   Q00  =   0.083208

H          x =  0.324632  y =  1.737294  z =  2.469724 angstrom
           Maximum rank =  0   Radius =  0.325 angstrom
                   Q00  =   0.085900

C          x = -0.708743  y = -1.203566  z = -1.225976 angstrom
           Maximum rank =  0   Radius =  0.650 angstrom
                   Q00  =  -0.232757

C          x = -2.152743  y = -1.548566  z = -1.555976 angstrom
           Maximum rank =  0   Radius =  0.650 angstrom
                   Q00  =  -0.233757

H          x = -0.286743  y = -0.588566  z = -2.019976 angstrom
           Maximum rank =  0   Radius =  0.325 angstrom
                   Q00  =   0.075836

H          x = -0.655743  y = -0.665566  z = -0.290976 angstrom
           Maximum rank =  0   Radius =  0.325 angstrom
                   Q00  =   0.081123

H          x = -0.119743  y = -2.115566  z = -1.125976 angstrom
           Maximum rank =  0   Radius =  0.325 angstrom
                   Q00  =   0.076604

H          x = -2.693743  y = -0.628566  z = -1.774976 angstrom
           Maximum rank =  0   Radius =  0.325 angstrom
                   Q00  =   0.078506

H          x = -2.176956  y = -2.223686  z = -2.424096 angstrom
           Maximum rank =  0   Radius =  0.325 angstrom
                   Q00  =   0.077734

H          x = -2.609242  y = -2.041066  z = -0.684736 angstrom
           Maximum rank =  0   Radius =  0.325 angstrom
                   Q00  =   0.076238

Total multipoles referred to origin at
           x =   0.000000,  y =    0.000000,  z =    0.000000 angstrom
                   Q00  =  -0.000000

Finished at 16:40:19 on 28 Apr 2020 

  DMA results are available in the Python driver through the
	  variable('DMA DISTRIBUTED MULTIPOLES')
  and
	  variable('DMA TOTAL MULTIPOLES')
  commands.


    Psi4 stopped on: Tuesday, 28 April 2020 04:40PM
    Psi4 wall time for execution: 0:00:09.62

*** Psi4 exiting successfully. Buy a developer a beer!
